 Entering Gaussian System, Link 0=g16
 Input=first.com
 Output=first.out
 Initial command:
 /opt/Gaussian//g16/l1.exe "/home/iaw/.TMP/gau16/Gau-1836111.inp" -scrdir="/home/iaw/.TMP/gau16/"
 Default is to use a total of  16 processors:
                               16 via shared-memory
                                1 via Linda
 Entering Link 1 = /opt/Gaussian//g16/l1.exe PID=   1836112.
  
 Copyright (c) 1988,1990,1992,1993,1995,1998,2003,2009,2016,
            Gaussian, Inc.  All Rights Reserved.
  
 This is part of the Gaussian(R) 16 program.  It is based on
 the Gaussian(R) 09 system (copyright 2009, Gaussian, Inc.),
 the Gaussian(R) 03 system (copyright 2003, Gaussian, Inc.),
 the Gaussian(R) 98 system (copyright 1998, Gaussian, Inc.),
 the Gaussian(R) 94 system (copyright 1995, Gaussian, Inc.),
 the Gaussian 92(TM) system (copyright 1992, Gaussian, Inc.),
 the Gaussian 90(TM) system (copyright 1990, Gaussian, Inc.),
 the Gaussian 88(TM) system (copyright 1988, Gaussian, Inc.),
 the Gaussian 86(TM) system (copyright 1986, Carnegie Mellon
 University), and the Gaussian 82(TM) system (copyright 1983,
 Carnegie Mellon University). Gaussian is a federally registered
 trademark of Gaussian, Inc.
  
 This software contains proprietary and confidential information,
 including trade secrets, belonging to Gaussian, Inc.
  
 This software is provided under written license and may be
 used, copied, transmitted, or stored only in accord with that
 written license.
  
 The following legend is applicable only to US Government
 contracts under FAR:
  
                    RESTRICTED RIGHTS LEGEND
  
 Use, reproduction and disclosure by the US Government is
 subject to restrictions as set forth in subparagraphs (a)
 and (c) of the Commercial Computer Software - Restricted
 Rights clause in FAR 52.227-19.
  
 Gaussian, Inc.
 340 Quinnipiac St., Bldg. 40, Wallingford CT 06492
  
  
 ---------------------------------------------------------------
 Warning -- This program may not be used in any manner that
 competes with the business of Gaussian, Inc. or will provide
 assistance to any competitor of Gaussian, Inc.  The licensee
 of this program is prohibited from giving any competitor of
 Gaussian, Inc. access to this program.  By using this program,
 the user acknowledges that Gaussian, Inc. is engaged in the
 business of creating and licensing software in the field of
 computational chemistry and represents and warrants to the
 licensee that it is not a competitor of Gaussian, Inc. and that
 it will not use this program in any manner prohibited above.
 ---------------------------------------------------------------
  

 Cite this work as:
 Gaussian 16, Revision A.03,
 M. J. Frisch, G. W. Trucks, H. B. Schlegel, G. E. Scuseria, 
 M. A. Robb, J. R. Cheeseman, G. Scalmani, V. Barone, 
 G. A. Petersson, H. Nakatsuji, X. Li, M. Caricato, A. V. Marenich, 
 J. Bloino, B. G. Janesko, R. Gomperts, B. Mennucci, H. P. Hratchian, 
 J. V. Ortiz, A. F. Izmaylov, J. L. Sonnenberg, D. Williams-Young, 
 F. Ding, F. Lipparini, F. Egidi, J. Goings, B. Peng, A. Petrone, 
 T. Henderson, D. Ranasinghe, V. G. Zakrzewski, J. Gao, N. Rega, 
 G. Zheng, W. Liang, M. Hada, M. Ehara, K. Toyota, R. Fukuda, 
 J. Hasegawa, M. Ishida, T. Nakajima, Y. Honda, O. Kitao, H. Nakai, 
 T. Vreven, K. Throssell, J. A. Montgomery, Jr., J. E. Peralta, 
 F. Ogliaro, M. J. Bearpark, J. J. Heyd, E. N. Brothers, K. N. Kudin, 
 V. N. Staroverov, T. A. Keith, R. Kobayashi, J. Normand, 
 K. Raghavachari, A. P. Rendell, J. C. Burant, S. S. Iyengar, 
 J. Tomasi, M. Cossi, J. M. Millam, M. Klene, C. Adamo, R. Cammi, 
 J. W. Ochterski, R. L. Martin, K. Morokuma, O. Farkas, 
 J. B. Foresman, and D. J. Fox, Gaussian, Inc., Wallingford CT, 2016.
 
 ******************************************
 Gaussian 16:  ES64L-G16RevA.03 25-Dec-2016
                 8-Jan-2026 
 ******************************************
 %mem=20GB
 %nprocshared=16
 Will use up to   16 processors via shared memory.
 %chk=first.chk
 ------------------------------
 # hf/3-21g opt density=current
 ------------------------------
 1/18=20,19=15,38=1/1,3;
 2/9=110,12=2,17=6,18=5,40=1/2;
 3/5=5,11=9,25=1,30=1,71=1/1,2,3;
 4//1;
 5/5=2,38=5/2;
 6/7=2,8=2,9=2,10=2,22=-1,28=1/1;
 7//1,2,3,16;
 1/18=20,19=15/3(2);
 2/9=110/2;
 99//99;
 2/9=110/2;
 3/5=5,11=9,25=1,30=1,71=1/1,2,3;
 4/5=5,16=3,69=1/1;
 5/5=2,38=5/2;
 7//1,2,3,16;
 1/18=20,19=15/3(-5);
 2/9=110/2;
 6/7=2,8=2,9=2,10=2,19=2,22=-1,28=1/1;
 99/9=1/99;
 ---------
 first.pdb
 ---------
 Symbolic Z-matrix:
 Charge =  0 Multiplicity = 1
 O                    -0.658    -2.981     1.61 
 C                    -0.38     -1.771     1.408 
 N                     0.894    -1.218     1.89 
 C                     1.914    -2.276     1.899 
 S                     1.495    -3.767     2.134 
 N                     3.329    -1.936     1.687 
 C                     3.423    -0.749     0.825 
 C                     4.495    -0.592     0.01 
 C                     4.586     0.65     -0.887 
 C                     3.59      1.56     -0.841 
 C                     2.398     1.325     0.105 
 N                     2.349     0.264     0.853 
 C                    -1.376    -0.868     0.656 
 C                    -2.579    -1.316     0.183 
 C                    -3.331    -0.109    -0.296 
 C                    -4.565     0.021    -0.81 
 C                    -5.052     1.459    -1.11 
 C                    -4.233     2.53     -0.849 
 C                    -2.806     2.305    -0.284 
 C                    -2.409     1.036    -0.069 
 O                    -1.12      0.56      0.384 
 H                     1.187    -0.478     1.284 
 H                     3.794    -2.704     1.248 
 H                     5.271    -1.328    -0.007 
 H                     5.424     0.792    -1.537 
 H                     3.629     2.434    -1.456 
 H                     1.605     2.042     0.147 
 H                    -2.922    -2.329     0.17 
 H                    -5.186    -0.83     -0.998 
 H                    -6.028     1.619    -1.52 
 H                    -4.581     3.524    -1.037 
 H                    -2.156     3.131    -0.078 
 

 GradGradGradGradGradGradGradGradGradGradGradGradGradGradGradGradGradGrad
 Berny optimization.
 Initialization pass.
                           ----------------------------
                           !    Initial Parameters    !
                           ! (Angstroms and Degrees)  !
 --------------------------                            --------------------------
 ! Name  Definition              Value          Derivative Info.                !
 --------------------------------------------------------------------------------
 ! R1    R(1,2)                  1.2579         estimate D2E/DX2                !
 ! R2    R(2,3)                  1.4701         estimate D2E/DX2                !
 ! R3    R(2,13)                 1.5404         estimate D2E/DX2                !
 ! R4    R(3,4)                  1.4696         estimate D2E/DX2                !
 ! R5    R(3,22)                 1.0003         estimate D2E/DX2                !
 ! R6    R(4,5)                  1.5665         estimate D2E/DX2                !
 ! R7    R(4,6)                  1.4706         estimate D2E/DX2                !
 ! R8    R(6,7)                  1.47           estimate D2E/DX2                !
 ! R9    R(6,23)                 0.9994         estimate D2E/DX2                !
 ! R10   R(7,8)                  1.3557         estimate D2E/DX2                !
 ! R11   R(7,12)                 1.4766         estimate D2E/DX2                !
 ! R12   R(8,9)                  1.5347         estimate D2E/DX2                !
 ! R13   R(8,24)                 1.0697         estimate D2E/DX2                !
 ! R14   R(9,10)                 1.3499         estimate D2E/DX2                !
 ! R15   R(9,25)                 1.07           estimate D2E/DX2                !
 ! R16   R(10,11)                1.5398         estimate D2E/DX2                !
 ! R17   R(10,26)                1.0694         estimate D2E/DX2                !
 ! R18   R(11,12)                1.2991         estimate D2E/DX2                !
 ! R19   R(11,27)                1.0699         estimate D2E/DX2                !
 ! R20   R(13,14)                1.3681         estimate D2E/DX2                !
 ! R21   R(13,21)                1.476          estimate D2E/DX2                !
 ! R22   R(14,15)                1.5006         estimate D2E/DX2                !
 ! R23   R(14,28)                1.0696         estimate D2E/DX2                !
 ! R24   R(15,16)                1.3431         estimate D2E/DX2                !
 ! R25   R(15,20)                1.4875         estimate D2E/DX2                !
 ! R26   R(16,17)                1.5476         estimate D2E/DX2                !
 ! R27   R(16,29)                1.0701         estimate D2E/DX2                !
 ! R28   R(17,18)                1.3733         estimate D2E/DX2                !
 ! R29   R(17,30)                1.0706         estimate D2E/DX2                !
 ! R30   R(18,19)                1.5512         estimate D2E/DX2                !
 ! R31   R(18,31)                1.0698         estimate D2E/DX2                !
 ! R32   R(19,20)                1.3469         estimate D2E/DX2                !
 ! R33   R(19,32)                1.0711         estimate D2E/DX2                !
 ! R34   R(20,21)                1.4468         estimate D2E/DX2                !
 ! A1    A(1,2,3)              120.0484         estimate D2E/DX2                !
 ! A2    A(1,2,13)             119.9601         estimate D2E/DX2                !
 ! A3    A(3,2,13)             119.9916         estimate D2E/DX2                !
 ! A4    A(2,3,4)              109.431          estimate D2E/DX2                !
 ! A5    A(2,3,22)             109.4798         estimate D2E/DX2                !
 ! A6    A(4,3,22)             109.4491         estimate D2E/DX2                !
 ! A7    A(3,4,5)              120.0325         estimate D2E/DX2                !
 ! A8    A(3,4,6)              120.0312         estimate D2E/DX2                !
 ! A9    A(5,4,6)              119.9363         estimate D2E/DX2                !
 ! A10   A(4,6,7)              109.4356         estimate D2E/DX2                !
 ! A11   A(4,6,23)             109.4717         estimate D2E/DX2                !
 ! A12   A(7,6,23)             109.4627         estimate D2E/DX2                !
 ! A13   A(6,7,8)              119.7743         estimate D2E/DX2                !
 ! A14   A(6,7,12)             119.7574         estimate D2E/DX2                !
 ! A15   A(8,7,12)             120.4683         estimate D2E/DX2                !
 ! A16   A(7,8,9)              119.4683         estimate D2E/DX2                !
 ! A17   A(7,8,24)             120.2322         estimate D2E/DX2                !
 ! A18   A(9,8,24)             120.2995         estimate D2E/DX2                !
 ! A19   A(8,9,10)             118.8077         estimate D2E/DX2                !
 ! A20   A(8,9,25)             120.5891         estimate D2E/DX2                !
 ! A21   A(10,9,25)            120.6032         estimate D2E/DX2                !
 ! A22   A(9,10,11)            119.2897         estimate D2E/DX2                !
 ! A23   A(9,10,26)            120.2943         estimate D2E/DX2                !
 ! A24   A(11,10,26)           120.416          estimate D2E/DX2                !
 ! A25   A(10,11,12)           120.5033         estimate D2E/DX2                !
 ! A26   A(10,11,27)           119.71           estimate D2E/DX2                !
 ! A27   A(12,11,27)           119.7866         estimate D2E/DX2                !
 ! A28   A(7,12,11)            121.4626         estimate D2E/DX2                !
 ! A29   A(2,13,14)            123.0503         estimate D2E/DX2                !
 ! A30   A(2,13,21)            123.0205         estimate D2E/DX2                !
 ! A31   A(14,13,21)           113.929          estimate D2E/DX2                !
 ! A32   A(13,14,15)           106.7161         estimate D2E/DX2                !
 ! A33   A(13,14,28)           126.6082         estimate D2E/DX2                !
 ! A34   A(15,14,28)           126.6706         estimate D2E/DX2                !
 ! A35   A(14,15,16)           131.3343         estimate D2E/DX2                !
 ! A36   A(14,15,20)           105.059          estimate D2E/DX2                !
 ! A37   A(16,15,20)           123.6            estimate D2E/DX2                !
 ! A38   A(15,16,17)           116.9527         estimate D2E/DX2                !
 ! A39   A(15,16,29)           121.5629         estimate D2E/DX2                !
 ! A40   A(17,16,29)           121.4834         estimate D2E/DX2                !
 ! A41   A(16,17,18)           120.0095         estimate D2E/DX2                !
 ! A42   A(16,17,30)           119.9975         estimate D2E/DX2                !
 ! A43   A(18,17,30)           119.9929         estimate D2E/DX2                !
 ! A44   A(17,18,19)           120.3138         estimate D2E/DX2                !
 ! A45   A(17,18,31)           119.8163         estimate D2E/DX2                !
 ! A46   A(19,18,31)           119.8698         estimate D2E/DX2                !
 ! A47   A(18,19,20)           117.7717         estimate D2E/DX2                !
 ! A48   A(18,19,32)           121.0959         estimate D2E/DX2                !
 ! A49   A(20,19,32)           121.1312         estimate D2E/DX2                !
 ! A50   A(15,20,19)           121.2094         estimate D2E/DX2                !
 ! A51   A(15,20,21)           110.289          estimate D2E/DX2                !
 ! A52   A(19,20,21)           128.5015         estimate D2E/DX2                !
 ! A53   A(13,21,20)           102.7952         estimate D2E/DX2                !
 ! D1    D(1,2,3,4)             30.0352         estimate D2E/DX2                !
 ! D2    D(1,2,3,22)           149.9887         estimate D2E/DX2                !
 ! D3    D(13,2,3,4)          -150.0158         estimate D2E/DX2                !
 ! D4    D(13,2,3,22)          -30.0623         estimate D2E/DX2                !
 ! D5    D(1,2,13,14)            0.0782         estimate D2E/DX2                !
 ! D6    D(1,2,13,21)          179.9033         estimate D2E/DX2                !
 ! D7    D(3,2,13,14)         -179.8708         estimate D2E/DX2                !
 ! D8    D(3,2,13,21)           -0.0458         estimate D2E/DX2                !
 ! D9    D(2,3,4,5)            -29.9863         estimate D2E/DX2                !
 ! D10   D(2,3,4,6)            149.9959         estimate D2E/DX2                !
 ! D11   D(22,3,4,5)          -149.9586         estimate D2E/DX2                !
 ! D12   D(22,3,4,6)            30.0235         estimate D2E/DX2                !
 ! D13   D(3,4,6,7)            -29.9977         estimate D2E/DX2                !
 ! D14   D(3,4,6,23)          -149.9658         estimate D2E/DX2                !
 ! D15   D(5,4,6,7)            149.9845         estimate D2E/DX2                !
 ! D16   D(5,4,6,23)            30.0163         estimate D2E/DX2                !
 ! D17   D(4,6,7,8)           -150.0171         estimate D2E/DX2                !
 ! D18   D(4,6,7,12)            29.984          estimate D2E/DX2                !
 ! D19   D(23,6,7,8)           -30.0434         estimate D2E/DX2                !
 ! D20   D(23,6,7,12)          149.9577         estimate D2E/DX2                !
 ! D21   D(6,7,8,9)           -179.9977         estimate D2E/DX2                !
 ! D22   D(6,7,8,24)            -0.0208         estimate D2E/DX2                !
 ! D23   D(12,7,8,9)             0.0012         estimate D2E/DX2                !
 ! D24   D(12,7,8,24)          179.9781         estimate D2E/DX2                !
 ! D25   D(6,7,12,11)         -179.9747         estimate D2E/DX2                !
 ! D26   D(8,7,12,11)            0.0264         estimate D2E/DX2                !
 ! D27   D(7,8,9,10)             0.006          estimate D2E/DX2                !
 ! D28   D(7,8,9,25)           179.9963         estimate D2E/DX2                !
 ! D29   D(24,8,9,10)         -179.9709         estimate D2E/DX2                !
 ! D30   D(24,8,9,25)            0.0194         estimate D2E/DX2                !
 ! D31   D(8,9,10,11)           -0.0351         estimate D2E/DX2                !
 ! D32   D(8,9,10,26)         -179.9844         estimate D2E/DX2                !
 ! D33   D(25,9,10,11)         179.9746         estimate D2E/DX2                !
 ! D34   D(25,9,10,26)           0.0253         estimate D2E/DX2                !
 ! D35   D(9,10,11,12)           0.0627         estimate D2E/DX2                !
 ! D36   D(9,10,11,27)         179.9861         estimate D2E/DX2                !
 ! D37   D(26,10,11,12)       -179.988          estimate D2E/DX2                !
 ! D38   D(26,10,11,27)         -0.0647         estimate D2E/DX2                !
 ! D39   D(10,11,12,7)          -0.0567         estimate D2E/DX2                !
 ! D40   D(27,11,12,7)        -179.98           estimate D2E/DX2                !
 ! D41   D(2,13,14,15)         171.762          estimate D2E/DX2                !
 ! D42   D(2,13,14,28)          -7.4653         estimate D2E/DX2                !
 ! D43   D(21,13,14,15)         -8.0775         estimate D2E/DX2                !
 ! D44   D(21,13,14,28)        172.6951         estimate D2E/DX2                !
 ! D45   D(2,13,21,20)        -168.4368         estimate D2E/DX2                !
 ! D46   D(14,13,21,20)         11.4028         estimate D2E/DX2                !
 ! D47   D(13,14,15,16)       -177.7317         estimate D2E/DX2                !
 ! D48   D(13,14,15,20)          1.3316         estimate D2E/DX2                !
 ! D49   D(28,14,15,16)          1.495          estimate D2E/DX2                !
 ! D50   D(28,14,15,20)       -179.4417         estimate D2E/DX2                !
 ! D51   D(14,15,16,17)        175.922          estimate D2E/DX2                !
 ! D52   D(14,15,16,29)         -3.7029         estimate D2E/DX2                !
 ! D53   D(20,15,16,17)         -2.992          estimate D2E/DX2                !
 ! D54   D(20,15,16,29)        177.3831         estimate D2E/DX2                !
 ! D55   D(14,15,20,19)       -174.3158         estimate D2E/DX2                !
 ! D56   D(14,15,20,21)          5.7866         estimate D2E/DX2                !
 ! D57   D(16,15,20,19)          4.8398         estimate D2E/DX2                !
 ! D58   D(16,15,20,21)       -175.0578         estimate D2E/DX2                !
 ! D59   D(15,16,17,18)         -0.0417         estimate D2E/DX2                !
 ! D60   D(15,16,17,30)       -179.9691         estimate D2E/DX2                !
 ! D61   D(29,16,17,18)        179.5835         estimate D2E/DX2                !
 ! D62   D(29,16,17,30)         -0.3439         estimate D2E/DX2                !
 ! D63   D(16,17,18,19)          1.4103         estimate D2E/DX2                !
 ! D64   D(16,17,18,31)       -178.6302         estimate D2E/DX2                !
 ! D65   D(30,17,18,19)       -178.6623         estimate D2E/DX2                !
 ! D66   D(30,17,18,31)          1.2973         estimate D2E/DX2                !
 ! D67   D(17,18,19,20)          0.2591         estimate D2E/DX2                !
 ! D68   D(17,18,19,32)        179.8599         estimate D2E/DX2                !
 ! D69   D(31,18,19,20)       -179.7004         estimate D2E/DX2                !
 ! D70   D(31,18,19,32)         -0.0996         estimate D2E/DX2                !
 ! D71   D(18,19,20,15)         -3.198          estimate D2E/DX2                !
 ! D72   D(18,19,20,21)        176.6792         estimate D2E/DX2                !
 ! D73   D(32,19,20,15)        177.2014         estimate D2E/DX2                !
 ! D74   D(32,19,20,21)         -2.9214         estimate D2E/DX2                !
 ! D75   D(15,20,21,13)         -9.9625         estimate D2E/DX2                !
 ! D76   D(19,20,21,13)        170.1495         estimate D2E/DX2                !
 --------------------------------------------------------------------------------
 Trust Radius=3.00D-01 FncErr=1.00D-07 GrdErr=1.00D-07 EigMax=2.50D+02 EigMin=1.00D-04
 Number of steps in this run=    173 maximum allowed number of steps=    192.
 GradGradGradGradGradGradGradGradGradGradGradGradGradGradGradGradGradGrad

                          Input orientation:                          
 ---------------------------------------------------------------------
 Center     Atomic      Atomic             Coordinates (Angstroms)
 Number     Number       Type             X           Y           Z
 ---------------------------------------------------------------------
      1          8           0       -0.658000   -2.981000    1.610000
      2          6           0       -0.380000   -1.771000    1.408000
      3          7           0        0.894000   -1.218000    1.890000
      4          6           0        1.914000   -2.276000    1.899000
      5         16           0        1.495000   -3.767000    2.134000
      6          7           0        3.329000   -1.936000    1.687000
      7          6           0        3.423000   -0.749000    0.825000
      8          6           0        4.495000   -0.592000    0.010000
      9          6           0        4.586000    0.650000   -0.887000
     10          6           0        3.590000    1.560000   -0.841000
     11          6           0        2.398000    1.325000    0.105000
     12          7           0        2.349000    0.264000    0.853000
     13          6           0       -1.376000   -0.868000    0.656000
     14          6           0       -2.579000   -1.316000    0.183000
     15          6           0       -3.331000   -0.109000   -0.296000
     16          6           0       -4.565000    0.021000   -0.810000
     17          6           0       -5.052000    1.459000   -1.110000
     18          6           0       -4.233000    2.530000   -0.849000
     19          6           0       -2.806000    2.305000   -0.284000
     20          6           0       -2.409000    1.036000   -0.069000
     21          8           0       -1.120000    0.560000    0.384000
     22          1           0        1.187000   -0.478000    1.284000
     23          1           0        3.794000   -2.704000    1.248000
     24          1           0        5.271000   -1.328000   -0.007000
     25          1           0        5.424000    0.792000   -1.537000
     26          1           0        3.629000    2.434000   -1.456000
     27          1           0        1.605000    2.042000    0.147000
     28          1           0       -2.922000   -2.329000    0.170000
     29          1           0       -5.186000   -0.830000   -0.998000
     30          1           0       -6.028000    1.619000   -1.520000
     31          1           0       -4.581000    3.524000   -1.037000
     32          1           0       -2.156000    3.131000   -0.078000
 ---------------------------------------------------------------------
                    Distance matrix (angstroms):
                    1          2          3          4          5
     1  O    0.000000
     2  C    1.257851   0.000000
     3  N    2.365433   1.470105   0.000000
     4  C    2.682486   2.399696   1.469641   0.000000
     5  S    2.351123   2.833146   2.630235   1.566482   0.000000
     6  N    4.122393   3.723137   2.546754   1.470636   2.629815
     7  C    4.717267   3.980852   2.783887   2.400476   3.813003
     8  C    5.900909   5.206733   4.110168   3.614656   4.857160
     9  C    6.849723   5.982426   4.983173   4.843847   6.179855
    10  C    6.683830   5.649289   4.737516   5.003146   6.451091
    11  C    5.490519   4.358934   3.451824   4.052147   5.555242
    12  N    4.488332   3.449158   2.321361   2.781176   4.315002
    13  C    2.427016   1.540431   2.607327   3.788352   4.339508
    14  C    2.915269   2.557978   3.871070   4.904417   5.139190
    15  C    4.361897   3.791340   4.884578   6.084730   6.525039
    16  C    5.489358   5.064091   6.214966   7.388662   7.729145
    17  C    6.813166   6.212955   7.177830   8.457509   8.983197
    18  C    7.014159   6.199860   6.916340   8.272530   9.020005
    19  C    6.011900   5.036081   5.552279   6.930328   7.823970
    20  C    4.692689   3.765318   4.452865   5.790570   6.569873
    21  O    3.775606   2.651365   3.079856   4.420778   5.350108
    22  H    3.126549   2.035366   1.000342   2.034590   3.410995
    23  H    4.475274   4.279996   3.321199   2.035039   2.683350
    24  H    6.363972   5.842283   4.771670   3.975046   4.979034
    25  H    7.818559   6.994885   6.025390   5.791271   7.049664
    26  H    7.556517   6.477392   5.658007   6.031695   7.476260
    27  H    5.700181   4.479879   3.764461   4.670129   6.140419
    28  H    2.761232   2.881974   4.330655   5.136063   5.043315
    29  H    5.650774   5.456368   6.742217   7.803430   7.941735
    30  H    7.732645   7.208688   8.221360   9.483457   9.947675
    31  H    8.044350   7.187729   7.812139   9.189403  10.006583
    32  H    6.515358   5.421437   5.664744   7.050467   8.112037
                    6          7          8          9         10
     6  N    0.000000
     7  C    1.469983   0.000000
     8  C    2.445040   1.355750   0.000000
     9  C    3.859135   2.498142   1.534749   0.000000
    10  C    4.322143   2.852179   2.484820   1.349901   0.000000
    11  C    3.742139   2.422912   2.842767   2.495402   1.539807
    12  N    2.548717   1.476628   2.459411   2.860204   2.467657
    13  C    4.933620   4.803449   5.912879   6.342761   5.726897
    14  C    6.127877   6.062809   7.113057   7.506483   6.883060
    15  C    7.185111   6.876246   7.846859   7.975227   7.140226
    16  C    8.507649   8.189888   9.117662   9.172915   8.299006
    17  C    9.465220   8.969120   9.828846   9.674464   8.646775
    18  C    9.141132   8.495202   9.309283   9.017239   7.882911
    19  C    7.714217   7.025471   7.860257   7.598967   6.463288
    20  C    6.696340   6.164226   7.093789   7.053236   6.071125
    21  O    5.265114   4.748348   5.744145   5.846535   4.968372
    22  H    2.622277   2.298656   3.546680   4.187938   3.800458
    23  H    0.999385   2.034354   2.546486   4.053986   4.752603
    24  H    2.647766   2.107740   1.069655   2.270707   3.444105
    25  H    4.714359   3.457995   2.274139   1.070004   2.106608
    26  H    5.391229   3.921337   3.472145   2.102918   1.069403
    27  H    4.600898   3.399189   3.912649   3.448649   2.269073
    28  H    6.444435   6.571488   7.619361   8.146272   7.651966
    29  H    8.996537   8.800271   9.736245   9.884063   9.096973
    30  H   10.510772  10.021370  10.861075  10.676921   9.642118
    31  H    9.989989   9.262267  10.020551   9.608135   8.406007
    32  H    7.673001   6.855294   7.622616   7.229413   6.005558
                   11         12         13         14         15
    11  C    0.000000
    12  N    1.299087   0.000000
    13  C    4.399537   3.898187   0.000000
    14  C    5.634846   5.218284   1.368080   0.000000
    15  C    5.919341   5.807041   2.303130   1.500598   0.000000
    16  C    7.142899   7.115337   3.620663   2.591875   1.343076
    17  C    7.549615   7.749593   4.695387   3.935505   2.466386
    18  C    6.806784   7.166190   4.687630   4.311897   2.843191
    19  C    5.309740   5.659724   3.605056   3.658040   2.470458
    20  C    4.818822   4.907610   2.284279   2.371562   1.487494
    21  O    3.611010   3.513053   1.476043   2.385049   2.408004
    22  H    2.471310   1.444496   2.667481   4.012132   4.800509
    23  H    4.414533   3.324616   5.518175   6.608774   7.738449
    24  H    3.912171   3.436881   6.695803   7.852308   8.692749
    25  H    3.483810   3.930205   7.335179   8.452815   8.888302
    26  H    2.276393   3.417423   6.357183   7.435596   7.500270
    27  H    1.069907   2.052622   4.196849   5.365008   5.402513
    28  H    6.454327   5.913846   2.181933   1.069573   2.304959
    29  H    7.961011   7.835768   4.153704   2.902999   2.110372
    30  H    8.586299   8.811429   5.706246   4.838392   3.428990
    31  H    7.405822   7.888257   5.694553   5.377918   3.912834
    32  H    4.902453   5.420468   4.139946   4.474691   3.453368
                   16         17         18         19         20
    16  C    0.000000
    17  C    1.547583   0.000000
    18  C    2.531171   1.373289   0.000000
    19  C    2.930429   2.538210   1.551186   0.000000
    20  C    2.495524   2.871943   2.483427   1.346921   0.000000
    21  O    3.685673   4.301263   3.884837   2.516713   1.446826
    22  H    6.141607   6.957609   6.555467   5.113488   4.129651
    23  H    9.029611  10.056960   9.809429   8.425978   7.362017
    24  H    9.960497  10.749340  10.291703   8.860776   8.035841
    25  H   10.045053  10.505893   9.836241   8.461210   7.973108
    26  H    8.566301   8.742431   7.885982   6.542129   6.351033
    27  H    6.562712   6.799676   5.942424   4.439803   4.143777
    28  H    3.030239   4.530369   5.134877   4.657631   3.412260
    29  H    1.070134   2.295653   3.495713   4.000303   3.472280
    30  H    2.279928   1.070643   2.121836   3.518462   3.942392
    31  H    3.510384   2.119291   1.069806   2.281139   3.441621
    32  H    4.001400   3.499632   2.295555   1.071080   2.110241
                   21         22         23         24         25
    21  O    0.000000
    22  H    2.685087   0.000000
    23  H    5.962180   3.428239   0.000000
    24  H    6.675500   4.366719   2.376958   0.000000
    25  H    6.824075   5.246247   4.757640   2.618914   0.000000
    26  H    5.426829   4.685158   5.808432   4.352977   2.434081
    27  H    3.110967   2.796050   5.341202   4.981985   4.356962
    28  H    3.411645   4.642314   6.812295   8.255821   9.072497
    29  H    4.513799   6.778389   9.444405  10.515652  10.746790
    30  H    5.369838   8.019729  11.082501  11.774607  11.481834
    31  H    4.773160   7.394110  10.684093  11.030173  10.383345
    32  H    2.810121   5.104466   8.438483   8.663028   8.065730
                   26         27         28         29         30
    26  H    0.000000
    27  H    2.611484   0.000000
    28  H    8.261092   6.292845   0.000000
    29  H    9.411041   7.461708   2.955828   0.000000
    30  H    9.691541   7.824353   5.300004   2.641789   0.000000
    31  H    8.292633   6.470300   6.202156   4.396005   2.440517
    32  H    5.987564   3.921947   5.519045   5.071176   4.399760
                   31         32
    31  H    0.000000
    32  H    2.637187   0.000000
 Stoichiometry    C15H11N3O2S
 Framework group  C1[X(C15H11N3O2S)]
 Deg. of freedom    90
 Full point group                 C1      NOp   1
 Largest Abelian subgroup         C1      NOp   1
 Largest concise Abelian subgroup C1      NOp   1
                         Standard orientation:                         
 ---------------------------------------------------------------------
 Center     Atomic      Atomic             Coordinates (Angstroms)
 Number     Number       Type             X           Y           Z
 ---------------------------------------------------------------------
      1          8           0       -0.234656   -2.826049    0.129828
      2          6           0       -0.093616   -1.630607   -0.235158
      3          7           0       -1.210095   -0.919632   -0.874844
      4          6           0       -2.482890   -1.449157   -0.365491
      5         16           0       -2.582578   -2.943375    0.094120
      6          7           0       -3.664087   -0.576637   -0.286427
      7          6           0       -3.233294    0.810513   -0.060417
      8          6           0       -4.034798    1.660874    0.626996
      9          6           0       -3.578098    3.107637    0.858847
     10          6           0       -2.382512    3.498747    0.369114
     11          6           0       -1.516916    2.485990   -0.402944
     12          7           0       -1.930483    1.267848   -0.583826
     13          6           0        1.250512   -0.911785   -0.012577
     14          6           0        2.330388   -1.513573    0.573394
     15          6           0        3.485982   -0.568289    0.422277
     16          6           0        4.775922   -0.680023    0.779237
     17          6           0        5.719196    0.477316    0.372035
     18          6           0        5.225254    1.553752   -0.323113
     19          6           0        3.716720    1.632742   -0.675625
     20          6           0        2.924334    0.620649   -0.273148
     21          8           0        1.490715    0.487646   -0.415812
     22          1           0       -1.147766    0.056534   -0.665318
     23          1           0       -4.246358   -0.871961    0.470220
     24          1           0       -4.977954    1.325673    1.004169
     25          1           0       -4.196433    3.793902    1.398857
     26          1           0       -2.040781    4.501224    0.517035
     27          1           0       -0.568281    2.788837   -0.794195
     28          1           0        2.349796   -2.477166    1.037182
     29          1           0        5.136908   -1.532943    1.315336
     30          1           0        6.757243    0.438258    0.631282
     31          1           0        5.884253    2.341641   -0.622172
     32          1           0        3.317721    2.467442   -1.215334
 ---------------------------------------------------------------------
 Rotational constants (GHZ):           0.4454681           0.1737119           0.1295714
 Standard basis: 3-21G (6D, 7F)
 There are   215 symmetry adapted cartesian basis functions of A   symmetry.
 There are   215 symmetry adapted basis functions of A   symmetry.
   215 basis functions,   360 primitive gaussians,   215 cartesian basis functions
    77 alpha electrons       77 beta electrons
       nuclear repulsion energy      1642.3831685091 Hartrees.
 NAtoms=   32 NActive=   32 NUniq=   32 SFac= 1.00D+00 NAtFMM=   60 NAOKFM=F Big=F
 Integral buffers will be    131072 words long.
 Raffenetti 1 integral format.
 Two-electron integral symmetry is turned on.
 One-electron integrals computed using PRISM.
 NBasis=   215 RedAO= T EigKep=  1.74D-03  NBF=   215
 NBsUse=   215 1.00D-06 EigRej= -1.00D+00 NBFU=   215
 ExpMin= 1.42D-01 ExpMax= 1.21D+03 ExpMxC= 1.21D+03 IAcc=3 IRadAn=         5 AccDes= 0.00D+00
 Harris functional with IExCor=  205 and IRadAn=       5 diagonalized for initial guess.
 HarFok:  IExCor=  205 AccDes= 0.00D+00 IRadAn=         5 IDoV= 1 UseB2=F ITyADJ=14
 ICtDFT=  3500011 ScaDFX=  1.000000  1.000000  1.000000  1.000000
 FoFCou: FMM=F IPFlag=           0 FMFlag=      100000 FMFlg1=           0
         NFxFlg=           0 DoJE=T BraDBF=F KetDBF=T FulRan=T
         wScrn=  0.000000 ICntrl=       500 IOpCl=  0 I1Cent=   200000004 NGrid=           0
         NMat0=    1 NMatS0=      1 NMatT0=    0 NMatD0=    1 NMtDS0=    0 NMtDT0=    0
 Petite list used in FoFCou.
 Requested convergence on RMS density matrix=1.00D-08 within 128 cycles.
 Requested convergence on MAX density matrix=1.00D-06.
 Requested convergence on             energy=1.00D-06.
 No special actions if energy rises.
 Integral accuracy reduced to 1.0D-05 until final iterations.
 Initial convergence to 1.0D-05 achieved.  Increase integral accuracy.
 SCF Done:  E(RHF) =  -1277.90211524     A.U. after   18 cycles
            NFock= 18  Conv=0.50D-08     -V/T= 2.0032

 **********************************************************************

            Population analysis using the SCF density.

 **********************************************************************

 Orbital symmetries:
       Occupied  (A) (A) (A) (A) (A) (A) (A) (A) (A) (A) (A) (A)
                 (A) (A) (A) (A) (A) (A) (A) (A) (A) (A) (A) (A)
                 (A) (A) (A) (A) (A) (A) (A) (A) (A) (A) (A) (A)
                 (A) (A) (A) (A) (A) (A) (A) (A) (A) (A) (A) (A)
                 (A) (A) (A) (A) (A) (A) (A) (A) (A) (A) (A) (A)
                 (A) (A) (A) (A) (A) (A) (A) (A) (A) (A) (A) (A)
                 (A) (A) (A) (A) (A)
       Virtual   (A) (A) (A) (A) (A) (A) (A) (A) (A) (A) (A) (A)
                 (A) (A) (A) (A) (A) (A) (A) (A) (A) (A) (A) (A)
                 (A) (A) (A) (A) (A) (A) (A) (A) (A) (A) (A) (A)
                 (A) (A) (A) (A) (A) (A) (A) (A) (A) (A) (A) (A)
                 (A) (A) (A) (A) (A) (A) (A) (A) (A) (A) (A) (A)
                 (A) (A) (A) (A) (A) (A) (A) (A) (A) (A) (A) (A)
                 (A) (A) (A) (A) (A) (A) (A) (A) (A) (A) (A) (A)
                 (A) (A) (A) (A) (A) (A) (A) (A) (A) (A) (A) (A)
                 (A) (A) (A) (A) (A) (A) (A) (A) (A) (A) (A) (A)
                 (A) (A) (A) (A) (A) (A) (A) (A) (A) (A) (A) (A)
                 (A) (A) (A) (A) (A) (A) (A) (A) (A) (A) (A) (A)
                 (A) (A) (A) (A) (A) (A)
 The electronic state is 1-A.
 Alpha  occ. eigenvalues --  -91.24610 -20.53763 -20.45162 -15.55278 -15.54125
 Alpha  occ. eigenvalues --  -15.51517 -11.33411 -11.32135 -11.30676 -11.28774
 Alpha  occ. eigenvalues --  -11.28222 -11.27670 -11.24212 -11.22484 -11.22423
 Alpha  occ. eigenvalues --  -11.22211 -11.22114 -11.21777 -11.21765 -11.21281
 Alpha  occ. eigenvalues --  -11.21204  -8.84951  -6.52522  -6.52104  -6.51943
 Alpha  occ. eigenvalues --   -1.41989  -1.39284  -1.31967  -1.25851  -1.21534
 Alpha  occ. eigenvalues --   -1.15410  -1.10535  -1.09556  -1.06530  -1.02552
 Alpha  occ. eigenvalues --   -1.01686  -1.00553  -0.91043  -0.88985  -0.85441
 Alpha  occ. eigenvalues --   -0.83033  -0.81729  -0.78728  -0.76923  -0.73827
 Alpha  occ. eigenvalues --   -0.73547  -0.70685  -0.69617  -0.68622  -0.66915
 Alpha  occ. eigenvalues --   -0.65479  -0.64157  -0.63812  -0.63226  -0.61973
 Alpha  occ. eigenvalues --   -0.61207  -0.60680  -0.59602  -0.57959  -0.56740
 Alpha  occ. eigenvalues --   -0.56461  -0.55278  -0.52166  -0.51851  -0.50740
 Alpha  occ. eigenvalues --   -0.49749  -0.49609  -0.47507  -0.43881  -0.42058
 Alpha  occ. eigenvalues --   -0.41275  -0.40994  -0.37007  -0.34806  -0.33064
 Alpha  occ. eigenvalues --   -0.31870  -0.27984
 Alpha virt. eigenvalues --    0.06163   0.08682   0.10878   0.12830   0.13376
 Alpha virt. eigenvalues --    0.16001   0.23816   0.24832   0.25314   0.26143
 Alpha virt. eigenvalues --    0.26183   0.28705   0.30061   0.30560   0.31473
 Alpha virt. eigenvalues --    0.32165   0.32342   0.32781   0.33141   0.34195
 Alpha virt. eigenvalues --    0.34406   0.34860   0.36190   0.37346   0.38493
 Alpha virt. eigenvalues --    0.42281   0.42638   0.45052   0.45879   0.48212
 Alpha virt. eigenvalues --    0.49632   0.50350   0.51914   0.53061   0.53450
 Alpha virt. eigenvalues --    0.54971   0.58052   0.62338   0.65613   0.68540
 Alpha virt. eigenvalues --    0.71438   0.72253   0.74664   0.77272   0.80117
 Alpha virt. eigenvalues --    0.83158   0.85873   0.87184   0.88260   0.91009
 Alpha virt. eigenvalues --    0.91990   0.92145   0.92942   0.94167   0.94949
 Alpha virt. eigenvalues --    0.95288   0.97125   0.98022   0.99915   1.00758
 Alpha virt. eigenvalues --    1.00943   1.01458   1.01784   1.03127   1.04185
 Alpha virt. eigenvalues --    1.05578   1.06564   1.06879   1.07243   1.07711
 Alpha virt. eigenvalues --    1.08117   1.09277   1.10493   1.11201   1.11546
 Alpha virt. eigenvalues --    1.12183   1.13935   1.15597   1.19638   1.24014
 Alpha virt. eigenvalues --    1.25223   1.26567   1.26704   1.28067   1.29917
 Alpha virt. eigenvalues --    1.33662   1.35137   1.36265   1.38251   1.39039
 Alpha virt. eigenvalues --    1.39790   1.41649   1.42878   1.45396   1.45759
 Alpha virt. eigenvalues --    1.49454   1.51750   1.53083   1.55437   1.55821
 Alpha virt. eigenvalues --    1.58130   1.60840   1.63629   1.65062   1.66253
 Alpha virt. eigenvalues --    1.67207   1.67913   1.72466   1.73740   1.75344
 Alpha virt. eigenvalues --    1.75710   1.78092   1.79049   1.79753   1.82227
 Alpha virt. eigenvalues --    1.83350   1.85028   1.87788   1.90729   1.92888
 Alpha virt. eigenvalues --    1.95459   1.97055   2.04939   2.08550   2.10468
 Alpha virt. eigenvalues --    2.14695   2.16911   2.18938   2.24350   2.25327
 Alpha virt. eigenvalues --    2.33503   2.49082   2.69140   2.98900   3.14441
 Alpha virt. eigenvalues --    3.23239   3.60362   3.83369
          Condensed to atoms (all electrons):
               1          2          3          4          5          6
     1  O    8.261549   0.524211  -0.066186  -0.019652  -0.073625  -0.000004
     2  C    0.524211   4.556978   0.223469  -0.103040  -0.039407  -0.000246
     3  N   -0.066186   0.223469   7.458802   0.212360  -0.064972  -0.043617
     4  C   -0.019652  -0.103040   0.212360   5.653077   0.198121   0.200228
     5  S   -0.073625  -0.039407  -0.064972   0.198121  15.835797  -0.098928
     6  N   -0.000004  -0.000246  -0.043617   0.200228  -0.098928   7.193977
     7  C    0.000005   0.000693   0.006010  -0.086224   0.003116   0.245857
     8  C    0.000000   0.000002  -0.000012   0.001770  -0.000004  -0.061393
     9  C    0.000000   0.000000   0.000003  -0.000092   0.000002   0.001734
    10  C    0.000000   0.000001  -0.000079   0.000008  -0.000001  -0.000119
    11  C    0.000000   0.000027  -0.000499   0.000136   0.000002   0.001032
    12  N   -0.000006   0.002986  -0.119512   0.006134  -0.000061  -0.030489
    13  C   -0.086090   0.192122  -0.080908   0.000027  -0.000727  -0.000039
    14  C    0.007301  -0.063639   0.002677  -0.000019   0.000090   0.000000
    15  C    0.000242   0.005508  -0.000016   0.000001   0.000001   0.000000
    16  C    0.000000  -0.000039   0.000000   0.000000   0.000000   0.000000
    17  C    0.000000   0.000000   0.000000   0.000000   0.000000   0.000000
    18  C    0.000000   0.000000   0.000000   0.000000   0.000000   0.000000
    19  C    0.000000  -0.000024   0.000000   0.000000   0.000000   0.000000
    20  C   -0.000044   0.000395  -0.000059  -0.000001   0.000000   0.000000
    21  O    0.000111  -0.008795  -0.000256   0.000013   0.000000   0.000000
    22  H    0.000338  -0.033899   0.257842  -0.028805   0.000712  -0.002653
    23  H    0.000008  -0.000027   0.001743  -0.032244   0.009036   0.325365
    24  H    0.000000   0.000000   0.000004  -0.000034  -0.000025  -0.001253
    25  H    0.000000   0.000000   0.000000   0.000000   0.000000  -0.000009
    26  H    0.000000   0.000000   0.000000   0.000000   0.000000   0.000000
    27  H    0.000000  -0.000020   0.000333  -0.000009   0.000000  -0.000005
    28  H    0.001714   0.000418   0.000033   0.000001   0.000020   0.000000
    29  H    0.000000   0.000001   0.000000   0.000000   0.000000   0.000000
    30  H    0.000000   0.000000   0.000000   0.000000   0.000000   0.000000
    31  H    0.000000   0.000000   0.000000   0.000000   0.000000   0.000000
    32  H    0.000000  -0.000001   0.000000   0.000000   0.000000   0.000000
               7          8          9         10         11         12
     1  O    0.000005   0.000000   0.000000   0.000000   0.000000  -0.000006
     2  C    0.000693   0.000002   0.000000   0.000001   0.000027   0.002986
     3  N    0.006010  -0.000012   0.000003  -0.000079  -0.000499  -0.119512
     4  C   -0.086224   0.001770  -0.000092   0.000008   0.000136   0.006134
     5  S    0.003116  -0.000004   0.000002  -0.000001   0.000002  -0.000061
     6  N    0.245857  -0.061393   0.001734  -0.000119   0.001032  -0.030489
     7  C    4.752561   0.461404  -0.084107  -0.011010  -0.089875   0.317453
     8  C    0.461404   5.283666   0.399847  -0.084206   0.001264  -0.051104
     9  C   -0.084107   0.399847   5.157408   0.455394  -0.089877  -0.014852
    10  C   -0.011010  -0.084206   0.455394   5.344902   0.388875  -0.058403
    11  C   -0.089875   0.001264  -0.089877   0.388875   4.769010   0.424655
    12  N    0.317453  -0.051104  -0.014852  -0.058403   0.424655   7.297980
    13  C   -0.000003   0.000000   0.000000   0.000000   0.000064   0.000071
    14  C    0.000000   0.000000   0.000000   0.000000   0.000001   0.000000
    15  C    0.000000   0.000000   0.000000   0.000000   0.000000   0.000000
    16  C    0.000000   0.000000   0.000000   0.000000   0.000000   0.000000
    17  C    0.000000   0.000000   0.000000   0.000000   0.000000   0.000000
    18  C    0.000000   0.000000   0.000000   0.000000   0.000000   0.000000
    19  C    0.000000   0.000000   0.000000   0.000000  -0.000002   0.000000
    20  C    0.000000   0.000000   0.000000   0.000000   0.000000   0.000006
    21  O   -0.000008   0.000000   0.000000   0.000006   0.000316  -0.000366
    22  H   -0.006565   0.001065  -0.000125   0.000652  -0.002798   0.038540
    23  H   -0.038298  -0.000950   0.000097   0.000000  -0.000076   0.001489
    24  H   -0.038652   0.391171  -0.020202   0.001464   0.000072   0.001681
    25  H    0.001069  -0.020971   0.393181  -0.036298   0.001495  -0.000009
    26  H    0.000114   0.002150  -0.038599   0.388389  -0.018116   0.001616
    27  H    0.002880  -0.000393   0.001977  -0.041134   0.384237  -0.037245
    28  H    0.000000   0.000000   0.000000   0.000000   0.000000   0.000000
    29  H    0.000000   0.000000   0.000000   0.000000   0.000000   0.000000
    30  H    0.000000   0.000000   0.000000   0.000000   0.000000   0.000000
    31  H    0.000000   0.000000   0.000000   0.000000   0.000000   0.000000
    32  H    0.000000   0.000000   0.000000   0.000000   0.000000   0.000000
              13         14         15         16         17         18
     1  O   -0.086090   0.007301   0.000242   0.000000   0.000000   0.000000
     2  C    0.192122  -0.063639   0.005508  -0.000039   0.000000   0.000000
     3  N   -0.080908   0.002677  -0.000016   0.000000   0.000000   0.000000
     4  C    0.000027  -0.000019   0.000001   0.000000   0.000000   0.000000
     5  S   -0.000727   0.000090   0.000001   0.000000   0.000000   0.000000
     6  N   -0.000039   0.000000   0.000000   0.000000   0.000000   0.000000
     7  C   -0.000003   0.000000   0.000000   0.000000   0.000000   0.000000
     8  C    0.000000   0.000000   0.000000   0.000000   0.000000   0.000000
     9  C    0.000000   0.000000   0.000000   0.000000   0.000000   0.000000
    10  C    0.000000   0.000000   0.000000   0.000000   0.000000   0.000000
    11  C    0.000064   0.000001   0.000000   0.000000   0.000000   0.000000
    12  N    0.000071   0.000000   0.000000   0.000000   0.000000   0.000000
    13  C    5.381554   0.391573  -0.117283   0.003641  -0.000063  -0.000172
    14  C    0.391573   5.357650   0.296206  -0.032770   0.001385   0.000338
    15  C   -0.117283   0.296206   5.459559   0.416389  -0.103901  -0.005243
    16  C    0.003641  -0.032770   0.416389   5.178188   0.445591  -0.083873
    17  C   -0.000063   0.001385  -0.103901   0.445591   5.136590   0.503659
    18  C   -0.000172   0.000338  -0.005243  -0.083873   0.503659   5.131027
    19  C    0.000533   0.003808  -0.084842  -0.007143  -0.086260   0.435330
    20  C   -0.122564  -0.089657   0.326898  -0.035555  -0.006002  -0.090221
    21  O    0.274726  -0.089455  -0.037823   0.002743  -0.000093   0.001019
    22  H   -0.004107   0.000302   0.000016   0.000000   0.000000   0.000000
    23  H    0.000003   0.000000   0.000000   0.000000   0.000000   0.000000
    24  H    0.000000   0.000000   0.000000   0.000000   0.000000   0.000000
    25  H    0.000000   0.000000   0.000000   0.000000   0.000000   0.000000
    26  H    0.000000   0.000000   0.000000   0.000000   0.000000   0.000000
    27  H   -0.000023   0.000002   0.000002   0.000000   0.000000   0.000000
    28  H   -0.016805   0.377012  -0.017674   0.001184  -0.000019   0.000002
    29  H    0.000002  -0.000626  -0.042389   0.399001  -0.017039   0.001056
    30  H    0.000000  -0.000020   0.002108  -0.025273   0.393886  -0.038269
    31  H    0.000001  -0.000001  -0.000118   0.002079  -0.038526   0.393847
    32  H   -0.000024  -0.000063   0.003279  -0.000224   0.001224  -0.019489
              19         20         21         22         23         24
     1  O    0.000000  -0.000044   0.000111   0.000338   0.000008   0.000000
     2  C   -0.000024   0.000395  -0.008795  -0.033899  -0.000027   0.000000
     3  N    0.000000  -0.000059  -0.000256   0.257842   0.001743   0.000004
     4  C    0.000000  -0.000001   0.000013  -0.028805  -0.032244  -0.000034
     5  S    0.000000   0.000000   0.000000   0.000712   0.009036  -0.000025
     6  N    0.000000   0.000000   0.000000  -0.002653   0.325365  -0.001253
     7  C    0.000000   0.000000  -0.000008  -0.006565  -0.038298  -0.038652
     8  C    0.000000   0.000000   0.000000   0.001065  -0.000950   0.391171
     9  C    0.000000   0.000000   0.000000  -0.000125   0.000097  -0.020202
    10  C    0.000000   0.000000   0.000006   0.000652   0.000000   0.001464
    11  C   -0.000002   0.000000   0.000316  -0.002798  -0.000076   0.000072
    12  N    0.000000   0.000006  -0.000366   0.038540   0.001489   0.001681
    13  C    0.000533  -0.122564   0.274726  -0.004107   0.000003   0.000000
    14  C    0.003808  -0.089657  -0.089455   0.000302   0.000000   0.000000
    15  C   -0.084842   0.326898  -0.037823   0.000016   0.000000   0.000000
    16  C   -0.007143  -0.035555   0.002743   0.000000   0.000000   0.000000
    17  C   -0.086260  -0.006002  -0.000093   0.000000   0.000000   0.000000
    18  C    0.435330  -0.090221   0.001019   0.000000   0.000000   0.000000
    19  C    5.187074   0.482886  -0.023097  -0.000003   0.000000   0.000000
    20  C    0.482886   4.945605   0.235929  -0.000156   0.000000   0.000000
    21  O   -0.023097   0.235929   8.295454   0.006687   0.000000   0.000000
    22  H   -0.000003  -0.000156   0.006687   0.287844  -0.000075  -0.000009
    23  H    0.000000   0.000000   0.000000  -0.000075   0.360339   0.001522
    24  H    0.000000   0.000000   0.000000  -0.000009   0.001522   0.406596
    25  H    0.000000   0.000000   0.000000   0.000000   0.000000  -0.000188
    26  H    0.000000   0.000000   0.000000  -0.000004   0.000000  -0.000013
    27  H    0.000003   0.000015   0.001400  -0.000622   0.000001   0.000002
    28  H   -0.000030   0.001665   0.000587  -0.000004   0.000000   0.000000
    29  H   -0.000004   0.001669  -0.000003   0.000000   0.000000   0.000000
    30  H    0.001939  -0.000047   0.000000   0.000000   0.000000   0.000000
    31  H   -0.024099   0.001677  -0.000002   0.000000   0.000000   0.000000
    32  H    0.391117  -0.046721  -0.000699   0.000001   0.000000   0.000000
              25         26         27         28         29         30
     1  O    0.000000   0.000000   0.000000   0.001714   0.000000   0.000000
     2  C    0.000000   0.000000  -0.000020   0.000418   0.000001   0.000000
     3  N    0.000000   0.000000   0.000333   0.000033   0.000000   0.000000
     4  C    0.000000   0.000000  -0.000009   0.000001   0.000000   0.000000
     5  S    0.000000   0.000000   0.000000   0.000020   0.000000   0.000000
     6  N   -0.000009   0.000000  -0.000005   0.000000   0.000000   0.000000
     7  C    0.001069   0.000114   0.002880   0.000000   0.000000   0.000000
     8  C   -0.020971   0.002150  -0.000393   0.000000   0.000000   0.000000
     9  C    0.393181  -0.038599   0.001977   0.000000   0.000000   0.000000
    10  C   -0.036298   0.388389  -0.041134   0.000000   0.000000   0.000000
    11  C    0.001495  -0.018116   0.384237   0.000000   0.000000   0.000000
    12  N   -0.000009   0.001616  -0.037245   0.000000   0.000000   0.000000
    13  C    0.000000   0.000000  -0.000023  -0.016805   0.000002   0.000000
    14  C    0.000000   0.000000   0.000002   0.377012  -0.000626  -0.000020
    15  C    0.000000   0.000000   0.000002  -0.017674  -0.042389   0.002108
    16  C    0.000000   0.000000   0.000000   0.001184   0.399001  -0.025273
    17  C    0.000000   0.000000   0.000000  -0.000019  -0.017039   0.393886
    18  C    0.000000   0.000000   0.000000   0.000002   0.001056  -0.038269
    19  C    0.000000   0.000000   0.000003  -0.000030  -0.000004   0.001939
    20  C    0.000000   0.000000   0.000015   0.001665   0.001669  -0.000047
    21  O    0.000000   0.000000   0.001400   0.000587  -0.000003   0.000000
    22  H    0.000000  -0.000004  -0.000622  -0.000004   0.000000   0.000000
    23  H    0.000000   0.000000   0.000001   0.000000   0.000000   0.000000
    24  H   -0.000188  -0.000013   0.000002   0.000000   0.000000   0.000000
    25  H    0.392858  -0.001058  -0.000018   0.000000   0.000000   0.000000
    26  H   -0.001058   0.408946   0.000670   0.000000   0.000000   0.000000
    27  H   -0.000018   0.000670   0.395265   0.000000   0.000000   0.000000
    28  H    0.000000   0.000000   0.000000   0.346893   0.000317   0.000000
    29  H    0.000000   0.000000   0.000000   0.000317   0.399467  -0.000158
    30  H    0.000000   0.000000   0.000000   0.000000  -0.000158   0.417510
    31  H    0.000000   0.000000   0.000000   0.000000  -0.000020  -0.001019
    32  H    0.000000   0.000000   0.000038   0.000000   0.000001  -0.000016
              31         32
     1  O    0.000000   0.000000
     2  C    0.000000  -0.000001
     3  N    0.000000   0.000000
     4  C    0.000000   0.000000
     5  S    0.000000   0.000000
     6  N    0.000000   0.000000
     7  C    0.000000   0.000000
     8  C    0.000000   0.000000
     9  C    0.000000   0.000000
    10  C    0.000000   0.000000
    11  C    0.000000   0.000000
    12  N    0.000000   0.000000
    13  C    0.000001  -0.000024
    14  C   -0.000001  -0.000063
    15  C   -0.000118   0.003279
    16  C    0.002079  -0.000224
    17  C   -0.038526   0.001224
    18  C    0.393847  -0.019489
    19  C   -0.024099   0.391117
    20  C    0.001677  -0.046721
    21  O   -0.000002  -0.000699
    22  H    0.000000   0.000001
    23  H    0.000000   0.000000
    24  H    0.000000   0.000000
    25  H    0.000000   0.000000
    26  H    0.000000   0.000000
    27  H    0.000000   0.000038
    28  H    0.000000   0.000000
    29  H   -0.000020   0.000001
    30  H   -0.001019  -0.000016
    31  H    0.413498  -0.000385
    32  H   -0.000385   0.413321
 Mulliken charges:
               1
     1  O   -0.549873
     2  C    0.742325
     3  N   -0.787160
     4  C   -0.001754
     5  S    0.230852
     6  N   -0.729440
     7  C    0.563578
     8  C   -0.323308
     9  C   -0.161791
    10  C   -0.348442
    11  C    0.230058
    12  N   -0.780563
    13  C    0.184490
    14  C   -0.162094
    15  C   -0.100919
    16  C   -0.263938
    17  C   -0.230434
    18  C   -0.229011
    19  C   -0.277187
    20  C    0.394281
    21  O   -0.658396
    22  H    0.485823
    23  H    0.372067
    24  H    0.257864
    25  H    0.269947
    26  H    0.255905
    27  H    0.292643
    28  H    0.304687
    29  H    0.258727
    30  H    0.249359
    31  H    0.253068
    32  H    0.258638
 Sum of Mulliken charges =   0.00000
 Mulliken charges with hydrogens summed into heavy atoms:
               1
     1  O   -0.549873
     2  C    0.742325
     3  N   -0.301337
     4  C   -0.001754
     5  S    0.230852
     6  N   -0.357373
     7  C    0.563578
     8  C   -0.065444
     9  C    0.108156
    10  C   -0.092538
    11  C    0.522701
    12  N   -0.780563
    13  C    0.184490
    14  C    0.142593
    15  C   -0.100919
    16  C   -0.005211
    17  C    0.018925
    18  C    0.024057
    19  C   -0.018549
    20  C    0.394281
    21  O   -0.658396
 Electronic spatial extent (au):  <R**2>=           7834.8716
 Charge=              0.0000 electrons
 Dipole moment (field-independent basis, Debye):
    X=              2.2228    Y=              7.9562    Z=              3.2414  Tot=              8.8741
 Quadrupole moment (field-independent basis, Debye-Ang):
   XX=           -101.8456   YY=           -129.8221   ZZ=           -134.8590
   XY=            -17.1645   XZ=             -8.3553   YZ=             -3.4073
 Traceless Quadrupole moment (field-independent basis, Debye-Ang):
   XX=             20.3300   YY=             -7.6465   ZZ=            -12.6835
   XY=            -17.1645   XZ=             -8.3553   YZ=             -3.4073
 Octapole moment (field-independent basis, Debye-Ang**2):
  XXX=             60.5511  YYY=            111.6023  ZZZ=              0.3416  XYY=             23.5695
  XXY=             55.4571  XXZ=             68.6016  XZZ=             -6.1338  YZZ=             -4.8997
  YYZ=              7.8171  XYZ=            -36.1278
 Hexadecapole moment (field-independent basis, Debye-Ang**3):
 XXXX=          -6655.0608 YYYY=          -2808.4357 ZZZZ=           -345.6875 XXXY=            -70.7328
 XXXZ=           -107.5668 YYYX=           -197.5878 YYYZ=             15.8718 ZZZX=            -10.1878
 ZZZY=            -15.9329 XXYY=          -1660.3146 XXZZ=          -1399.4811 YYZZ=           -523.6092
 XXYZ=            -35.0006 YYXZ=            -70.4631 ZZXY=            -19.7321
 N-N= 1.642383168509D+03 E-N=-6.286666219835D+03  KE= 1.273775861978D+03
 Calling FoFJK, ICntrl=      2127 FMM=F ISym2X=0 I1Cent= 0 IOpClX= 0 NMat=1 NMatS=1 NMatT=0.
 ***** Axes restored to original set *****
 -------------------------------------------------------------------
 Center     Atomic                   Forces (Hartrees/Bohr)
 Number     Number              X              Y              Z
 -------------------------------------------------------------------
      1        8          -0.043465200    0.100219125   -0.033588241
      2        6          -0.003727476   -0.043545809    0.027456415
      3        7          -0.040061822   -0.093271878   -0.034705206
      4        6           0.009923678    0.077566472    0.014303522
      5       16           0.040307568   -0.114373712    0.030369511
      6        7          -0.078730413    0.063316419   -0.038176621
      7        6           0.000053328    0.038866911   -0.006413546
      8        6          -0.005538301    0.051484270   -0.030317037
      9        6          -0.019958527   -0.046407184    0.044664699
     10        6          -0.039738528   -0.008971008    0.034343688
     11        6           0.071916285   -0.012204621   -0.034904495
     12        7           0.073926031   -0.003892536   -0.031135823
     13        6           0.000896624   -0.009755043   -0.007771740
     14        6           0.030184063    0.044392769    0.008308254
     15        6           0.047239468   -0.000610678    0.012102677
     16        6          -0.019430973    0.071499443   -0.012234781
     17        6           0.039070490   -0.043718686    0.017384385
     18        6           0.048016093   -0.038601130    0.021943195
     19        6          -0.048506246    0.006486842   -0.022099105
     20        6          -0.016021645   -0.024953897   -0.008791636
     21        8          -0.050094872   -0.035736107    0.011888058
     22        1           0.000371442    0.030018193    0.020331061
     23        1           0.006912780   -0.010104285    0.009394552
     24        1           0.001912062    0.002166700   -0.001916864
     25        1           0.001805012   -0.004517694    0.001496470
     26        1          -0.005080723    0.002064572    0.001903083
     27        1          -0.002022133   -0.003474838    0.000556782
     28        1           0.002190404    0.003723422    0.005826760
     29        1          -0.003254580    0.002900247    0.000037305
     30        1          -0.000554616   -0.003821436    0.000827625
     31        1           0.004869163    0.001967120    0.001556878
     32        1          -0.003408435    0.001288038   -0.002639825
 -------------------------------------------------------------------
 Cartesian Forces:  Max     0.114373712 RMS     0.034620353

 GradGradGradGradGradGradGradGradGradGradGradGradGradGradGradGradGradGrad
 Berny optimization.
 FormGI is forming the generalized inverse of G from B-inverse, IUseBI=4.
 Internal  Forces:  Max     0.288278811 RMS     0.041649939
 Search for a local minimum.
 Step number   1 out of a maximum of  173
 All quantities printed in internal units (Hartrees-Bohrs-Radians)
 Mixed Optimization -- RFO/linear search
 Second derivative matrix not updated -- first step.
 ITU=  0
     Eigenvalues ---    0.00231   0.00498   0.00757   0.00764   0.00764
     Eigenvalues ---    0.00766   0.00771   0.00784   0.00843   0.00893
     Eigenvalues ---    0.00962   0.01128   0.01316   0.01343   0.01378
     Eigenvalues ---    0.01433   0.01497   0.01510   0.01524   0.01541
     Eigenvalues ---    0.01617   0.01749   0.01885   0.02080   0.02104
     Eigenvalues ---    0.02250   0.02275   0.03939   0.03944   0.11838
     Eigenvalues ---    0.11839   0.15997   0.16000   0.16000   0.16000
     Eigenvalues ---    0.16000   0.16000   0.16000   0.16000   0.16000
     Eigenvalues ---    0.21999   0.22000   0.22479   0.22652   0.23486
     Eigenvalues ---    0.23486   0.23633   0.24332   0.24456   0.24901
     Eigenvalues ---    0.25000   0.25000   0.25000   0.25000   0.25000
     Eigenvalues ---    0.25000   0.27193   0.27595   0.28111   0.28481
     Eigenvalues ---    0.28714   0.31234   0.31782   0.34294   0.34420
     Eigenvalues ---    0.35664   0.35728   0.35742   0.35783   0.37094
     Eigenvalues ---    0.37149   0.37213   0.37230   0.37242   0.37255
     Eigenvalues ---    0.37274   0.37284   0.37306   0.37434   0.47628
     Eigenvalues ---    0.47797   0.48539   0.49213   0.51609   0.53396
     Eigenvalues ---    0.53777   0.55350   0.58287   0.65319   0.80402
 RFO step:  Lambda=-4.18277796D-01 EMin= 2.31117178D-03
 Linear search not attempted -- first point.
 Maximum step size (   0.300) exceeded in Quadratic search.
    -- Step size scaled by   0.393
 Iteration  1 RMS(Cart)=  0.21022911 RMS(Int)=  0.00871268
 Iteration  2 RMS(Cart)=  0.03038972 RMS(Int)=  0.00023151
 Iteration  3 RMS(Cart)=  0.00072962 RMS(Int)=  0.00014103
 Iteration  4 RMS(Cart)=  0.00000015 RMS(Int)=  0.00014103
 Variable       Old X    -DE/DX   Delta X   Delta X   Delta X     New X
                                 (Linear)    (Quad)   (Total)
    R1        2.37699  -0.09219   0.00000  -0.02967  -0.02967   2.34733
    R2        2.77810  -0.00470   0.00000  -0.00238  -0.00238   2.77571
    R3        2.91099  -0.04765   0.00000  -0.02665  -0.02665   2.88434
    R4        2.77722   0.01592   0.00000   0.00807   0.00807   2.78529
    R5        1.89037   0.01000   0.00000   0.00440   0.00440   1.89477
    R6        2.96022   0.10264   0.00000   0.04032   0.04032   3.00055
    R7        2.77910   0.02833   0.00000   0.01438   0.01438   2.79348
    R8        2.77786   0.02988   0.00000   0.01515   0.01515   2.79302
    R9        1.88856   0.00685   0.00000   0.00301   0.00301   1.89157
   R10        2.56200  -0.00570   0.00000  -0.00235  -0.00235   2.55965
   R11        2.79042  -0.07216   0.00000  -0.03712  -0.03710   2.75332
   R12        2.90025  -0.06836   0.00000  -0.03780  -0.03782   2.86244
   R13        2.02135  -0.00007   0.00000  -0.00004  -0.00004   2.02132
   R14        2.55094  -0.01882   0.00000  -0.00752  -0.00753   2.54341
   R15        2.02201  -0.00009   0.00000  -0.00005  -0.00005   2.02197
   R16        2.90981  -0.07715   0.00000  -0.04313  -0.04313   2.86669
   R17        2.02088   0.00041   0.00000   0.00020   0.00020   2.02108
   R18        2.45492  -0.01896   0.00000  -0.00694  -0.00691   2.44800
   R19        2.02183  -0.00081   0.00000  -0.00040  -0.00040   2.02143
   R20        2.58530  -0.05255   0.00000  -0.02252  -0.02252   2.56278
   R21        2.78932  -0.04574   0.00000  -0.02376  -0.02375   2.76557
   R22        2.83572  -0.02343   0.00000  -0.01235  -0.01236   2.82336
   R23        2.02120  -0.00430   0.00000  -0.00214  -0.00214   2.01906
   R24        2.53805  -0.00193   0.00000  -0.00067  -0.00069   2.53736
   R25        2.81096  -0.04850   0.00000  -0.02465  -0.02467   2.78629
   R26        2.92451  -0.07151   0.00000  -0.04038  -0.04037   2.88414
   R27        2.02226  -0.00042   0.00000  -0.00021  -0.00021   2.02205
   R28        2.59514  -0.02295   0.00000  -0.00991  -0.00989   2.58525
   R29        2.02322  -0.00038   0.00000  -0.00019  -0.00019   2.02303
   R30        2.93132  -0.07391   0.00000  -0.04204  -0.04202   2.88929
   R31        2.02164  -0.00003   0.00000  -0.00001  -0.00001   2.02162
   R32        2.54531  -0.01495   0.00000  -0.00602  -0.00602   2.53929
   R33        2.02405  -0.00158   0.00000  -0.00079  -0.00079   2.02326
   R34        2.73411  -0.03713   0.00000  -0.01795  -0.01795   2.71616
    A1        2.09524   0.11659   0.00000   0.06862   0.06861   2.16385
    A2        2.09370  -0.04034   0.00000  -0.02374  -0.02375   2.06995
    A3        2.09425  -0.07626   0.00000  -0.04489  -0.04489   2.04936
    A4        1.90993   0.23111   0.00000   0.14042   0.14013   2.05006
    A5        1.91078  -0.06190   0.00000  -0.03479  -0.03540   1.87538
    A6        1.91025  -0.05005   0.00000  -0.02609  -0.02636   1.88389
    A7        2.09496   0.09121   0.00000   0.05368   0.05356   2.14852
    A8        2.09494   0.01978   0.00000   0.01164   0.01154   2.10648
    A9        2.09328  -0.11098   0.00000  -0.06532  -0.06541   2.02787
   A10        1.91001   0.28828   0.00000   0.17421   0.17445   2.08446
   A11        1.91064  -0.07796   0.00000  -0.04501  -0.04456   1.86609
   A12        1.91049  -0.08308   0.00000  -0.04875  -0.04847   1.86202
   A13        2.09046  -0.05669   0.00000  -0.03326  -0.03327   2.05719
   A14        2.09016   0.08296   0.00000   0.04893   0.04892   2.13908
   A15        2.10257  -0.02627   0.00000  -0.01568  -0.01568   2.08689
   A16        2.08512   0.01569   0.00000   0.00981   0.00978   2.09490
   A17        2.09845  -0.00439   0.00000  -0.00256  -0.00254   2.09591
   A18        2.09962  -0.01130   0.00000  -0.00725  -0.00724   2.09238
   A19        2.07359   0.00301   0.00000   0.00220   0.00216   2.07575
   A20        2.10468  -0.00664   0.00000  -0.00460  -0.00458   2.10010
   A21        2.10492   0.00363   0.00000   0.00239   0.00241   2.10734
   A22        2.08200  -0.01587   0.00000  -0.00962  -0.00964   2.07236
   A23        2.09953   0.01378   0.00000   0.00879   0.00880   2.10833
   A24        2.10166   0.00208   0.00000   0.00083   0.00084   2.10250
   A25        2.10318   0.01408   0.00000   0.00841   0.00844   2.11162
   A26        2.08933  -0.00374   0.00000  -0.00196  -0.00197   2.08736
   A27        2.09067  -0.01034   0.00000  -0.00645  -0.00646   2.08421
   A28        2.11992   0.00935   0.00000   0.00488   0.00494   2.12486
   A29        2.14763   0.01578   0.00000   0.00960   0.00960   2.15723
   A30        2.14711  -0.01186   0.00000  -0.00667  -0.00667   2.14045
   A31        1.98844  -0.00392   0.00000  -0.00293  -0.00293   1.98550
   A32        1.86255   0.00132   0.00000   0.00057   0.00056   1.86310
   A33        2.20973  -0.00391   0.00000  -0.00250  -0.00249   2.20724
   A34        2.21082   0.00262   0.00000   0.00194   0.00195   2.21277
   A35        2.29222   0.01256   0.00000   0.00681   0.00684   2.29905
   A36        1.83363   0.00129   0.00000   0.00130   0.00130   1.83492
   A37        2.15723  -0.01386   0.00000  -0.00812  -0.00814   2.14908
   A38        2.04121   0.00019   0.00000   0.00040   0.00038   2.04159
   A39        2.12167   0.00403   0.00000   0.00261   0.00262   2.12429
   A40        2.12028  -0.00423   0.00000  -0.00301  -0.00300   2.11729
   A41        2.09456   0.00522   0.00000   0.00315   0.00316   2.09773
   A42        2.09435  -0.00652   0.00000  -0.00423  -0.00424   2.09011
   A43        2.09427   0.00130   0.00000   0.00108   0.00108   2.09535
   A44        2.09987   0.00671   0.00000   0.00394   0.00396   2.10384
   A45        2.09119   0.00218   0.00000   0.00179   0.00178   2.09297
   A46        2.09212  -0.00889   0.00000  -0.00573  -0.00574   2.08638
   A47        2.05550  -0.00797   0.00000  -0.00491  -0.00490   2.05060
   A48        2.11352  -0.00010   0.00000  -0.00032  -0.00033   2.11320
   A49        2.11414   0.00808   0.00000   0.00524   0.00523   2.11937
   A50        2.11550   0.00982   0.00000   0.00565   0.00563   2.12113
   A51        1.92491  -0.00930   0.00000  -0.00477  -0.00477   1.92013
   A52        2.24277  -0.00052   0.00000  -0.00087  -0.00086   2.24192
   A53        1.79411   0.01195   0.00000   0.00704   0.00705   1.80116
    D1        0.52421  -0.00886   0.00000  -0.00500  -0.00485   0.51937
    D2        2.61780   0.03339   0.00000   0.02767   0.02770   2.64549
    D3       -2.61827  -0.01577   0.00000  -0.01140  -0.01142  -2.62969
    D4       -0.52469   0.02648   0.00000   0.02127   0.02112  -0.50357
    D5        0.00137  -0.00175   0.00000  -0.00162  -0.00153  -0.00017
    D6        3.13991  -0.00302   0.00000  -0.00281  -0.00272   3.13719
    D7       -3.13934   0.00507   0.00000   0.00473   0.00463  -3.13471
    D8       -0.00080   0.00380   0.00000   0.00354   0.00345   0.00265
    D9       -0.52336  -0.01653   0.00000  -0.01774  -0.01792  -0.54128
   D10        2.61792   0.01354   0.00000   0.01004   0.01076   2.62868
   D11       -2.61727  -0.05143   0.00000  -0.04502  -0.04574  -2.66302
   D12        0.52401  -0.02136   0.00000  -0.01725  -0.01706   0.50695
   D13       -0.52356  -0.02403   0.00000  -0.02496  -0.02447  -0.54803
   D14       -2.61740  -0.05099   0.00000  -0.04432  -0.04383  -2.66123
   D15        2.61772   0.00605   0.00000   0.00281   0.00232   2.62004
   D16        0.52388  -0.02091   0.00000  -0.01655  -0.01703   0.50685
   D17       -2.61829  -0.01298   0.00000  -0.00886  -0.00874  -2.62703
   D18        0.52332  -0.00597   0.00000  -0.00251  -0.00230   0.52102
   D19       -0.52436   0.01708   0.00000   0.01277   0.01256  -0.51180
   D20        2.61726   0.02409   0.00000   0.01912   0.01900   2.63625
   D21       -3.14155   0.00504   0.00000   0.00455   0.00442  -3.13713
   D22       -0.00036   0.00436   0.00000   0.00393   0.00382   0.00346
   D23        0.00002  -0.00202   0.00000  -0.00184  -0.00182  -0.00180
   D24        3.14121  -0.00269   0.00000  -0.00246  -0.00242   3.13879
   D25       -3.14115  -0.00482   0.00000  -0.00439  -0.00454   3.13750
   D26        0.00046   0.00224   0.00000   0.00201   0.00201   0.00247
   D27        0.00010   0.00085   0.00000   0.00080   0.00078   0.00088
   D28        3.14153   0.00049   0.00000   0.00046   0.00046  -3.14119
   D29       -3.14108   0.00152   0.00000   0.00142   0.00138  -3.13971
   D30        0.00034   0.00116   0.00000   0.00108   0.00106   0.00140
   D31       -0.00061   0.00022   0.00000   0.00018   0.00018  -0.00043
   D32       -3.14132   0.00027   0.00000   0.00022   0.00023  -3.14109
   D33        3.14115   0.00058   0.00000   0.00051   0.00050  -3.14154
   D34        0.00044   0.00063   0.00000   0.00056   0.00055   0.00099
   D35        0.00109  -0.00004   0.00000  -0.00005  -0.00003   0.00107
   D36        3.14135   0.00095   0.00000   0.00086   0.00085  -3.14098
   D37       -3.14138  -0.00009   0.00000  -0.00009  -0.00007  -3.14146
   D38       -0.00113   0.00090   0.00000   0.00082   0.00081  -0.00032
   D39       -0.00099  -0.00116   0.00000  -0.00101  -0.00105  -0.00204
   D40       -3.14124  -0.00215   0.00000  -0.00192  -0.00194   3.14000
   D41        2.99781   0.00492   0.00000   0.00426   0.00425   3.00206
   D42       -0.13029   0.00323   0.00000   0.00280   0.00280  -0.12750
   D43       -0.14098   0.00611   0.00000   0.00535   0.00534  -0.13564
   D44        3.01410   0.00441   0.00000   0.00390   0.00390   3.01800
   D45       -2.93978  -0.00485   0.00000  -0.00466  -0.00467  -2.94445
   D46        0.19902  -0.00599   0.00000  -0.00572  -0.00573   0.19329
   D47       -3.10200  -0.00129   0.00000  -0.00117  -0.00116  -3.10317
   D48        0.02324  -0.00227   0.00000  -0.00200  -0.00200   0.02124
   D49        0.02609   0.00035   0.00000   0.00024   0.00024   0.02634
   D50       -3.13185  -0.00064   0.00000  -0.00059  -0.00059  -3.13244
   D51        3.07042   0.00065   0.00000   0.00056   0.00055   3.07097
   D52       -0.06463   0.00075   0.00000   0.00062   0.00062  -0.06401
   D53       -0.05222   0.00162   0.00000   0.00141   0.00141  -0.05081
   D54        3.09592   0.00172   0.00000   0.00148   0.00148   3.09740
   D55       -3.04238  -0.00141   0.00000  -0.00121  -0.00121  -3.04360
   D56        0.10100  -0.00247   0.00000  -0.00207  -0.00207   0.09893
   D57        0.08447  -0.00200   0.00000  -0.00179  -0.00179   0.08268
   D58       -3.05533  -0.00306   0.00000  -0.00265  -0.00265  -3.05798
   D59       -0.00073  -0.00004   0.00000  -0.00012  -0.00012  -0.00085
   D60       -3.14105   0.00015   0.00000   0.00010   0.00010  -3.14095
   D61        3.13432  -0.00011   0.00000  -0.00017  -0.00017   3.13415
   D62       -0.00600   0.00008   0.00000   0.00006   0.00006  -0.00595
   D63        0.02461  -0.00037   0.00000  -0.00033  -0.00033   0.02428
   D64       -3.11768  -0.00029   0.00000  -0.00019  -0.00019  -3.11787
   D65       -3.11825  -0.00057   0.00000  -0.00056  -0.00056  -3.11881
   D66        0.02264  -0.00048   0.00000  -0.00042  -0.00042   0.02222
   D67        0.00452  -0.00030   0.00000  -0.00018  -0.00018   0.00434
   D68        3.13915   0.00008   0.00000   0.00018   0.00018   3.13933
   D69       -3.13636  -0.00039   0.00000  -0.00033  -0.00033  -3.13669
   D70       -0.00174  -0.00001   0.00000   0.00003   0.00003  -0.00171
   D71       -0.05582   0.00078   0.00000   0.00083   0.00084  -0.05498
   D72        3.08363   0.00205   0.00000   0.00186   0.00186   3.08549
   D73        3.09275   0.00044   0.00000   0.00049   0.00050   3.09324
   D74       -0.05099   0.00170   0.00000   0.00152   0.00152  -0.04947
   D75       -0.17388   0.00464   0.00000   0.00418   0.00418  -0.16969
   D76        2.96967   0.00347   0.00000   0.00323   0.00324   2.97291
         Item               Value     Threshold  Converged?
 Maximum Force            0.288279     0.000450     NO 
 RMS     Force            0.041650     0.000300     NO 
 Maximum Displacement     0.932292     0.001800     NO 
 RMS     Displacement     0.232269     0.001200     NO 
 Predicted change in Energy=-1.526144D-01
 GradGradGradGradGradGradGradGradGradGradGradGradGradGradGradGradGradGrad

                          Input orientation:                          
 ---------------------------------------------------------------------
 Center     Atomic      Atomic             Coordinates (Angstroms)
 Number     Number       Type             X           Y           Z
 ---------------------------------------------------------------------
      1          8           0       -0.909455   -3.119364    1.526214
      2          6           0       -0.580289   -1.933418    1.358512
      3          7           0        0.695405   -1.363568    1.811699
      4          6           0        1.859069   -2.266040    1.873730
      5         16           0        1.737090   -3.818052    2.186066
      6          7           0        3.228717   -1.745796    1.677220
      7          6           0        3.445179   -0.590599    0.781033
      8          6           0        4.634754   -0.501137    0.139477
      9          6           0        4.910932    0.665653   -0.786131
     10          6           0        3.959284    1.602342   -0.954839
     11          6           0        2.646402    1.450626   -0.210147
     12          7           0        2.438155    0.442182    0.575859
     13          6           0       -1.555078   -0.998048    0.648202
     14          6           0       -2.768548   -1.389099    0.185873
     15          6           0       -3.479809   -0.151949   -0.256593
     16          6           0       -4.712277    0.041115   -0.753206
     17          6           0       -5.136463    1.484327   -1.011177
     18          6           0       -4.277419    2.513271   -0.737512
     19          6           0       -2.873617    2.231610   -0.201144
     20          6           0       -2.525641    0.946623   -0.018528
     21          8           0       -1.260341    0.415314    0.408832
     22          1           0        0.923467   -0.607609    1.193753
     23          1           0        3.777011   -2.499479    1.312131
     24          1           0        5.380945   -1.253354    0.286068
     25          1           0        5.848820    0.740874   -1.295604
     26          1           0        4.122348    2.438371   -1.601613
     27          1           0        1.880312    2.186747   -0.334565
     28          1           0       -3.144926   -2.388620    0.156455
     29          1           0       -5.372140   -0.776849   -0.954358
     30          1           0       -6.110104    1.689404   -1.406180
     31          1           0       -4.587133    3.524361   -0.899504
     32          1           0       -2.193650    3.030163    0.013975
 ---------------------------------------------------------------------
                    Distance matrix (angstroms):
                    1          2          3          4          5
     1  O    0.000000
     2  C    1.242152   0.000000
     3  N    2.395808   1.468844   0.000000
     4  C    2.917816   2.515264   1.473911   0.000000
     5  S    2.815630   3.099506   2.692535   1.587820   0.000000
     6  N    4.362792   3.826918   2.565512   1.478244   2.603481
     7  C    5.090460   4.282644   3.036612   2.552809   3.912561
     8  C    6.286207   5.543839   4.365614   3.718460   4.856635
     9  C    7.317800   6.442684   5.351367   4.998355   6.245865
    10  C    7.221824   6.201687   5.206079   5.232216   6.647111
    11  C    6.045153   4.931935   3.976674   4.333133   5.858980
    12  N    4.979385   3.920080   2.797358   3.058476   4.608020
    13  C    2.384893   1.526327   2.559689   3.842671   4.599546
    14  C    2.871682   2.541622   3.826609   5.003271   5.495576
    15  C    4.311690   3.766884   4.814381   6.124645   6.828098
    16  C    5.444800   5.042962   6.147756   7.443544   8.070120
    17  C    6.745363   6.168884   7.077417   8.445437   9.251125
    18  C    6.942205   6.151027   6.801275   8.204686   9.209086
    19  C    5.956057   5.003932   5.451125   6.850713   7.972189
    20  C    4.640101   3.738352   4.365989   5.755652   6.762636
    21  O    3.723655   2.623148   2.992892   4.366498   5.483114
    22  H    3.127147   2.011516   1.002669   2.021909   3.457400
    23  H    4.732130   4.394160   3.322071   2.012061   2.581409
    24  H    6.677505   6.094992   4.928892   3.993722   4.844104
    25  H    8.278790   7.451820   6.375084   5.916445   7.057772
    26  H    8.123469   7.070338   6.152185   6.271517   7.692775
    27  H    6.276951   5.088893   4.314533   4.970345   6.513962
    28  H    2.721683   2.868713   4.305660   5.291883   5.476923
    29  H    5.617488   5.445077   6.694059   7.906084   8.345797
    30  H    7.666155   7.165697   8.123444   9.482144  10.237908
    31  H    7.971731   7.137282   7.690753   9.097971  10.169934
    32  H    6.461633   5.389606   5.557277   6.923365   8.189428
                    6          7          8          9         10
     6  N    0.000000
     7  C    1.478001   0.000000
     8  C    2.427091   1.354506   0.000000
     9  C    3.835758   2.486484   1.514735   0.000000
    10  C    4.321052   2.843685   2.465443   1.345914   0.000000
    11  C    3.757441   2.405636   2.808053   2.464963   1.516985
    12  N    2.573953   1.456994   2.430088   2.831887   2.450069
    13  C    4.950020   5.018589   6.230549   6.828946   6.303963
    14  C    6.190197   6.293030   7.456508   8.008821   7.450749
    15  C    7.161306   7.016021   8.131724   8.447096   7.674971
    16  C    8.494670   8.324485   9.405207   9.643510   8.813289
    17  C    9.361486   9.008991  10.037069  10.083205   9.096687
    18  C    8.961733   8.460408   9.448946   9.372398   8.289770
    19  C    7.522399   6.989758   7.997472   7.962012   6.903083
[...]
 Alpha virt. eigenvalues --    1.08363   1.09589   1.10090   1.10838   1.11713
 Alpha virt. eigenvalues --    1.11948   1.12751   1.16071   1.20619   1.21341
 Alpha virt. eigenvalues --    1.25321   1.26321   1.26883   1.27893   1.31250
 Alpha virt. eigenvalues --    1.33053   1.34930   1.35528   1.38566   1.40709
 Alpha virt. eigenvalues --    1.41795   1.42188   1.44137   1.45024   1.45695
 Alpha virt. eigenvalues --    1.48450   1.50241   1.51249   1.52210   1.54494
 Alpha virt. eigenvalues --    1.55867   1.60703   1.62734   1.64125   1.66765
 Alpha virt. eigenvalues --    1.67267   1.68269   1.70678   1.75950   1.76180
 Alpha virt. eigenvalues --    1.79063   1.79547   1.81190   1.82724   1.83657
 Alpha virt. eigenvalues --    1.87358   1.88660   1.94707   1.95121   1.98084
 Alpha virt. eigenvalues --    2.01091   2.04858   2.08815   2.10138   2.13943
 Alpha virt. eigenvalues --    2.17670   2.21553   2.25045   2.31485   2.34371
 Alpha virt. eigenvalues --    2.48363   2.61546   2.78598   2.97743   3.19234
 Alpha virt. eigenvalues --    3.35772   3.74207   3.99385
          Condensed to atoms (all electrons):
               1          2          3          4          5          6
     1  O    8.134963   0.620083  -0.077373  -0.003297  -0.001238   0.000003
     2  C    0.620083   4.375415   0.078808  -0.046458  -0.002466   0.000976
     3  N   -0.077373   0.078808   7.863750   0.222899  -0.046600  -0.066890
     4  C   -0.003297  -0.046458   0.222899   5.129887   0.143651   0.193640
     5  S   -0.001238  -0.002466  -0.046600   0.143651  16.004535  -0.084447
     6  N    0.000003   0.000976  -0.066890   0.193640  -0.084447   7.576195
     7  C    0.000000   0.000057  -0.001370  -0.032648   0.000972   0.183319
     8  C    0.000000   0.000001  -0.000161   0.000841   0.000018  -0.066523
     9  C    0.000000   0.000000   0.000005  -0.000075   0.000000   0.003368
    10  C    0.000000   0.000000  -0.000028   0.000005   0.000000  -0.000292
    11  C    0.000000   0.000006  -0.000144   0.000065  -0.000001   0.001828
    12  N    0.000000   0.000498  -0.028336   0.002993  -0.000037  -0.060065
    13  C   -0.115268   0.166315  -0.133231   0.001635  -0.000057  -0.000117
    14  C    0.002782  -0.067707   0.004303  -0.000029   0.000000   0.000000
    15  C    0.000331   0.007191  -0.000056   0.000002   0.000000   0.000000
    16  C    0.000000  -0.000025   0.000000   0.000000   0.000000   0.000000
    17  C    0.000000   0.000000   0.000000   0.000000   0.000000   0.000000
    18  C    0.000000   0.000000   0.000000   0.000000   0.000000   0.000000
    19  C    0.000000  -0.000055   0.000004   0.000000   0.000000   0.000000
    20  C   -0.000089  -0.000679  -0.000060  -0.000006   0.000000   0.000000
    21  O    0.000308  -0.011480  -0.002266   0.000082  -0.000003   0.000001
    22  H    0.000657  -0.019148   0.250606  -0.020750   0.000000  -0.007706
    23  H    0.000002  -0.000012   0.002658  -0.031098   0.011482   0.334276
    24  H    0.000000   0.000000   0.000000  -0.000053  -0.000029  -0.002030
    25  H    0.000000   0.000000   0.000000   0.000000   0.000000  -0.000025
    26  H    0.000000   0.000000   0.000000   0.000000   0.000000   0.000001
    27  H    0.000000  -0.000005   0.000083   0.000000   0.000000  -0.000007
    28  H    0.000792   0.000010   0.000027   0.000000   0.000000   0.000000
    29  H    0.000000   0.000001   0.000000   0.000000   0.000000   0.000000
    30  H    0.000000   0.000000   0.000000   0.000000   0.000000   0.000000
    31  H    0.000000   0.000000   0.000000   0.000000   0.000000   0.000000
    32  H    0.000000  -0.000002   0.000000   0.000000   0.000000   0.000000
               7          8          9         10         11         12
     1  O    0.000000   0.000000   0.000000   0.000000   0.000000   0.000000
     2  C    0.000057   0.000001   0.000000   0.000000   0.000006   0.000498
     3  N   -0.001370  -0.000161   0.000005  -0.000028  -0.000144  -0.028336
     4  C   -0.032648   0.000841  -0.000075   0.000005   0.000065   0.002993
     5  S    0.000972   0.000018   0.000000   0.000000  -0.000001  -0.000037
     6  N    0.183319  -0.066523   0.003368  -0.000292   0.001828  -0.060065
     7  C    4.519150   0.388089  -0.106878  -0.012839  -0.111621   0.379354
     8  C    0.388089   5.361185   0.437287  -0.094085   0.000179  -0.065083
     9  C   -0.106878   0.437287   5.205507   0.407876  -0.116936  -0.023384
    10  C   -0.012839  -0.094085   0.407876   5.400588   0.419226  -0.069421
    11  C   -0.111621   0.000179  -0.116936   0.419226   4.845387   0.401672
    12  N    0.379354  -0.065083  -0.023384  -0.069421   0.401672   7.280492
    13  C    0.000005   0.000000   0.000000   0.000000  -0.000007  -0.000237
    14  C    0.000000   0.000000   0.000000   0.000000   0.000000  -0.000004
    15  C    0.000000   0.000000   0.000000   0.000000   0.000000   0.000000
    16  C    0.000000   0.000000   0.000000   0.000000   0.000000   0.000000
    17  C    0.000000   0.000000   0.000000   0.000000   0.000000   0.000000
    18  C    0.000000   0.000000   0.000000   0.000000   0.000000   0.000000
    19  C    0.000000   0.000000   0.000000   0.000000  -0.000099   0.000000
    20  C    0.000000   0.000000   0.000000   0.000000   0.000017   0.000004
    21  O   -0.000029   0.000000   0.000000   0.000002   0.000156  -0.000460
    22  H   -0.000389   0.000956  -0.000070   0.000306   0.000459   0.055360
    23  H   -0.031945   0.001149   0.000219   0.000012  -0.000118   0.001531
    24  H   -0.029920   0.389931  -0.025384   0.002220   0.000052   0.002156
    25  H    0.002109  -0.029360   0.393678  -0.027972   0.001787   0.000021
    26  H    0.000119   0.002199  -0.029151   0.389444  -0.021799   0.002241
    27  H    0.003865  -0.000793   0.003181  -0.053191   0.399904  -0.036736
    28  H    0.000000   0.000000   0.000000   0.000000   0.000000   0.000000
    29  H    0.000000   0.000000   0.000000   0.000000   0.000000   0.000000
    30  H    0.000000   0.000000   0.000000   0.000000   0.000000   0.000000
    31  H    0.000000   0.000000   0.000000   0.000000   0.000000   0.000000
    32  H    0.000000   0.000000   0.000000  -0.000001   0.000116  -0.000008
              13         14         15         16         17         18
     1  O   -0.115268   0.002782   0.000331   0.000000   0.000000   0.000000
     2  C    0.166315  -0.067707   0.007191  -0.000025   0.000000   0.000000
     3  N   -0.133231   0.004303  -0.000056   0.000000   0.000000   0.000000
     4  C    0.001635  -0.000029   0.000002   0.000000   0.000000   0.000000
     5  S   -0.000057   0.000000   0.000000   0.000000   0.000000   0.000000
     6  N   -0.000117   0.000000   0.000000   0.000000   0.000000   0.000000
     7  C    0.000005   0.000000   0.000000   0.000000   0.000000   0.000000
     8  C    0.000000   0.000000   0.000000   0.000000   0.000000   0.000000
     9  C    0.000000   0.000000   0.000000   0.000000   0.000000   0.000000
    10  C    0.000000   0.000000   0.000000   0.000000   0.000000   0.000000
    11  C   -0.000007   0.000000   0.000000   0.000000   0.000000   0.000000
    12  N   -0.000237  -0.000004   0.000000   0.000000   0.000000   0.000000
    13  C    5.473631   0.389192  -0.116117   0.003714  -0.000044  -0.000381
    14  C    0.389192   5.356147   0.320027  -0.015982   0.000990   0.000639
    15  C   -0.116117   0.320027   5.560899   0.361845  -0.118246  -0.007165
    16  C    0.003714  -0.015982   0.361845   5.153231   0.501968  -0.109642
    17  C   -0.000044   0.000990  -0.118246   0.501968   5.166725   0.469906
    18  C   -0.000381   0.000639  -0.007165  -0.109642   0.469906   5.167806
    19  C    0.000805   0.003995  -0.081959  -0.002708  -0.109848   0.484983
    20  C   -0.150802  -0.094598   0.344400  -0.051455  -0.010598  -0.121993
    21  O    0.269256  -0.129312  -0.050656   0.004491  -0.000219   0.002079
    22  H   -0.009673   0.000547   0.000056  -0.000001   0.000000   0.000000
    23  H    0.000003   0.000000   0.000000   0.000000   0.000000   0.000000
    24  H    0.000000   0.000000   0.000000   0.000000   0.000000   0.000000
    25  H    0.000000   0.000000   0.000000   0.000000   0.000000   0.000000
    26  H    0.000000   0.000000   0.000000   0.000000   0.000000   0.000000
    27  H    0.000004   0.000001   0.000001   0.000000   0.000000  -0.000002
    28  H   -0.019115   0.380361  -0.017693   0.001044  -0.000013   0.000004
    29  H    0.000017  -0.000712  -0.035059   0.398005  -0.025543   0.001983
    30  H    0.000001  -0.000029   0.003347  -0.032992   0.398414  -0.032389
    31  H    0.000002  -0.000002  -0.000118   0.002392  -0.031363   0.396849
    32  H    0.000037  -0.000076   0.003275  -0.000366   0.002082  -0.025853
              19         20         21         22         23         24
     1  O    0.000000  -0.000089   0.000308   0.000657   0.000002   0.000000
     2  C   -0.000055  -0.000679  -0.011480  -0.019148  -0.000012   0.000000
     3  N    0.000004  -0.000060  -0.002266   0.250606   0.002658   0.000000
     4  C    0.000000  -0.000006   0.000082  -0.020750  -0.031098  -0.000053
     5  S    0.000000   0.000000  -0.000003   0.000000   0.011482  -0.000029
     6  N    0.000000   0.000000   0.000001  -0.007706   0.334276  -0.002030
     7  C    0.000000   0.000000  -0.000029  -0.000389  -0.031945  -0.029920
     8  C    0.000000   0.000000   0.000000   0.000956   0.001149   0.389931
     9  C    0.000000   0.000000   0.000000  -0.000070   0.000219  -0.025384
    10  C    0.000000   0.000000   0.000002   0.000306   0.000012   0.002220
    11  C   -0.000099   0.000017   0.000156   0.000459  -0.000118   0.000052
    12  N    0.000000   0.000004  -0.000460   0.055360   0.001531   0.002156
    13  C    0.000805  -0.150802   0.269256  -0.009673   0.000003   0.000000
    14  C    0.003995  -0.094598  -0.129312   0.000547   0.000000   0.000000
    15  C   -0.081959   0.344400  -0.050656   0.000056   0.000000   0.000000
    16  C   -0.002708  -0.051455   0.004491  -0.000001   0.000000   0.000000
    17  C   -0.109848  -0.010598  -0.000219   0.000000   0.000000   0.000000
    18  C    0.484983  -0.121993   0.002079   0.000000   0.000000   0.000000
    19  C    5.181977   0.430717  -0.021804  -0.000034   0.000000   0.000000
    20  C    0.430717   5.022383   0.227776   0.000021   0.000000   0.000000
    21  O   -0.021804   0.227776   8.433898   0.018543   0.000000   0.000000
    22  H   -0.000034   0.000021   0.018543   0.234373  -0.000048  -0.000007
    23  H    0.000000   0.000000   0.000000  -0.000048   0.300395   0.002042
    24  H    0.000000   0.000000   0.000000  -0.000007   0.002042   0.399195
    25  H    0.000000   0.000000   0.000000   0.000000  -0.000003  -0.001208
    26  H    0.000000   0.000000   0.000000  -0.000001   0.000000  -0.000017
    27  H    0.000209  -0.000023   0.000301  -0.000550   0.000001   0.000003
    28  H   -0.000042   0.002237   0.001006  -0.000009   0.000000   0.000000
    29  H   -0.000056   0.001954  -0.000007   0.000000   0.000000   0.000000
    30  H    0.002365  -0.000092   0.000000   0.000000   0.000000   0.000000
    31  H   -0.032563   0.003066  -0.000006   0.000000   0.000000   0.000000
    32  H    0.394594  -0.040466  -0.001418   0.000009   0.000000   0.000000
              25         26         27         28         29         30
     1  O    0.000000   0.000000   0.000000   0.000792   0.000000   0.000000
     2  C    0.000000   0.000000  -0.000005   0.000010   0.000001   0.000000
     3  N    0.000000   0.000000   0.000083   0.000027   0.000000   0.000000
     4  C    0.000000   0.000000   0.000000   0.000000   0.000000   0.000000
     5  S    0.000000   0.000000   0.000000   0.000000   0.000000   0.000000
     6  N   -0.000025   0.000001  -0.000007   0.000000   0.000000   0.000000
     7  C    0.002109   0.000119   0.003865   0.000000   0.000000   0.000000
     8  C   -0.029360   0.002199  -0.000793   0.000000   0.000000   0.000000
     9  C    0.393678  -0.029151   0.003181   0.000000   0.000000   0.000000
    10  C   -0.027972   0.389444  -0.053191   0.000000   0.000000   0.000000
    11  C    0.001787  -0.021799   0.399904   0.000000   0.000000   0.000000
    12  N    0.000021   0.002241  -0.036736   0.000000   0.000000   0.000000
    13  C    0.000000   0.000000   0.000004  -0.019115   0.000017   0.000001
    14  C    0.000000   0.000000   0.000001   0.380361  -0.000712  -0.000029
    15  C    0.000000   0.000000   0.000001  -0.017693  -0.035059   0.003347
    16  C    0.000000   0.000000   0.000000   0.001044   0.398005  -0.032992
    17  C    0.000000   0.000000   0.000000  -0.000013  -0.025543   0.398414
    18  C    0.000000   0.000000  -0.000002   0.000004   0.001983  -0.032389
    19  C    0.000000   0.000000   0.000209  -0.000042  -0.000056   0.002365
    20  C    0.000000   0.000000  -0.000023   0.002237   0.001954  -0.000092
    21  O    0.000000   0.000000   0.000301   0.001006  -0.000007   0.000000
    22  H    0.000000  -0.000001  -0.000550  -0.000009   0.000000   0.000000
    23  H   -0.000003   0.000000   0.000001   0.000000   0.000000   0.000000
    24  H   -0.001208  -0.000017   0.000003   0.000000   0.000000   0.000000
    25  H    0.390192  -0.001119  -0.000025   0.000000   0.000000   0.000000
    26  H   -0.001119   0.399140  -0.000283   0.000000   0.000000   0.000000
    27  H   -0.000025  -0.000283   0.411479   0.000000   0.000000   0.000000
    28  H    0.000000   0.000000   0.000000   0.352657   0.000235   0.000000
    29  H    0.000000   0.000000   0.000000   0.000235   0.400957  -0.001474
    30  H    0.000000   0.000000   0.000000   0.000000  -0.001474   0.414295
    31  H    0.000000   0.000000   0.000000   0.000000  -0.000031  -0.001396
    32  H    0.000000   0.000000   0.000842   0.000000   0.000002  -0.000025
              31         32
     1  O    0.000000   0.000000
     2  C    0.000000  -0.000002
     3  N    0.000000   0.000000
     4  C    0.000000   0.000000
     5  S    0.000000   0.000000
     6  N    0.000000   0.000000
     7  C    0.000000   0.000000
     8  C    0.000000   0.000000
     9  C    0.000000   0.000000
    10  C    0.000000  -0.000001
    11  C    0.000000   0.000116
    12  N    0.000000  -0.000008
    13  C    0.000002   0.000037
    14  C   -0.000002  -0.000076
    15  C   -0.000118   0.003275
    16  C    0.002392  -0.000366
    17  C   -0.031363   0.002082
    18  C    0.396849  -0.025853
    19  C   -0.032563   0.394594
    20  C    0.003066  -0.040466
    21  O   -0.000006  -0.001418
    22  H    0.000000   0.000009
    23  H    0.000000   0.000000
    24  H    0.000000   0.000000
    25  H    0.000000   0.000000
    26  H    0.000000   0.000000
    27  H    0.000000   0.000842
    28  H    0.000000   0.000000
    29  H   -0.000031   0.000002
    30  H   -0.001396  -0.000025
    31  H    0.411561  -0.001615
    32  H   -0.001615   0.408616
 Mulliken charges:
               1
     1  O   -0.562655
     2  C    0.898674
     3  N   -1.066628
     4  C    0.438714
     5  S   -0.025782
     6  N   -1.005506
     7  C    0.850601
     8  C   -0.325828
     9  C   -0.149244
    10  C   -0.361851
    11  C    0.179871
    12  N   -0.842552
    13  C    0.240432
    14  C   -0.150532
    15  C   -0.174302
    16  C   -0.213520
    17  C   -0.244210
    18  C   -0.226825
    19  C   -0.250481
    20  C    0.438285
    21  O   -0.740237
    22  H    0.496493
    23  H    0.409455
    24  H    0.263050
    25  H    0.271925
    26  H    0.259227
    27  H    0.271740
    28  H    0.298499
    29  H    0.259730
    30  H    0.249975
    31  H    0.253225
    32  H    0.260257
 Sum of Mulliken charges =   0.00000
 Mulliken charges with hydrogens summed into heavy atoms:
               1
     1  O   -0.562655
     2  C    0.898674
     3  N   -0.570135
     4  C    0.438714
     5  S   -0.025782
     6  N   -0.596051
     7  C    0.850601
     8  C   -0.062779
     9  C    0.122682
    10  C   -0.102624
    11  C    0.451611
    12  N   -0.842552
    13  C    0.240432
    14  C    0.147968
    15  C   -0.174302
    16  C    0.046209
    17  C    0.005765
    18  C    0.026400
    19  C    0.009776
    20  C    0.438285
    21  O   -0.740237
 Electronic spatial extent (au):  <R**2>=           7724.6881
 Charge=              0.0000 electrons
 Dipole moment (field-independent basis, Debye):
    X=              1.8122    Y=              9.9428    Z=              0.0008  Tot=             10.1066
 Quadrupole moment (field-independent basis, Debye-Ang):
   XX=            -97.3566   YY=           -136.9441   ZZ=           -137.0033
   XY=            -23.5952   XZ=              0.0007   YZ=             -0.0025
 Traceless Quadrupole moment (field-independent basis, Debye-Ang):
   XX=             26.4114   YY=            -13.1761   ZZ=            -13.2353
   XY=            -23.5952   XZ=              0.0007   YZ=             -0.0025
 Octapole moment (field-independent basis, Debye-Ang**2):
  XXX=             18.7957  YYY=            162.4720  ZZZ=             -0.0016  XYY=             44.0339
  XXY=             75.8859  XXZ=              0.0191  XZZ=             -8.5401  YZZ=            -11.3670
  YYZ=              0.0037  XYZ=             -0.0108
 Hexadecapole moment (field-independent basis, Debye-Ang**3):
 XXXX=          -6117.1883 YYYY=          -3366.4339 ZZZZ=           -139.7143 XXXY=           -292.8254
 XXXZ=              0.0580 YYYX=           -286.5237 YYYZ=             -0.0122 ZZZX=             -0.0012
 ZZZY=             -0.0026 XXYY=          -1626.8572 XXZZ=          -1385.6767 YYZZ=           -629.1888
 XXYZ=             -0.0408 YYXZ=             -0.0174 ZZXY=              0.6280
 N-N= 1.657661442046D+03 E-N=-6.318151377064D+03  KE= 1.275849898607D+03
 1\1\GINC-M2\FOpt\RHF\3-21G\C15H11N3O2S1\IAW\08-Jan-2026\0\\# hf/3-21g 
 opt density=current\\first.pdb\\0,1\O,-1.0245886977,-3.3072734578,1.68
 39355413\C,-0.6590992605,-2.2657859827,1.201667921\N,0.6470836969,-1.8
 272724865,1.0411167512\C,1.78219202,-2.4641140333,1.3861711966\S,1.946
 4457075,-4.0120654058,2.1292189157\N,2.9430217,-1.7953182599,1.1105480
 08\C,3.1738524145,-0.5537208073,0.5279643672\C,4.4892921611,-0.1128047
 874,0.3665279816\C,4.6967860706,1.1155333438,-0.2106712044\C,3.6099529
 988,1.8861117103,-0.6176018803\C,2.3528891106,1.3734960217,-0.41989186
 72\N,2.1491854681,0.1788848778,0.141364764\C,-1.6324547414,-1.28639704
 02,0.6995076427\C,-2.964430169,-1.354668521,0.6826121206\C,-3.43608502
 8,-0.1215876804,0.0783569544\C,-4.6891139057,0.4010907745,-0.216849984
 5\C,-4.7557832385,1.6429441127,-0.8102771171\C,-3.5945391358,2.3630338
 212,-1.1098335273\C,-2.343450876,1.8578578573,-0.8230528889\C,-2.29866
 96052,0.6150624799,-0.2300066545\O,-1.1770103893,-0.092164895,0.148140
 1528\H,0.7712871738,-0.91286964,0.6104144114\H,3.7531869246,-2.3133910
 86,1.3870007827\H,5.3078573692,-0.7224537372,0.6869226754\H,5.69580290
 36,1.4775525435,-0.3462016475\H,3.7469892492,2.8452296317,-1.069210627
 6\H,1.4744766879,1.9102592729,-0.7078375172\H,-3.5483877234,-2.1668228
 82,1.047428385\H,-5.5798116133,-0.1484617425,0.01161394\H,-5.709652118
 2,2.0683723617,-1.0480896683\H,-3.6795819599,3.3261764467,-1.571326448
 6\H,-1.4466431946,2.3955671897,-1.0456614784\\Version=ES64L-G16RevA.03
 \State=1-A\HF=-1278.1415725\RMSD=3.702e-09\RMSF=3.868e-06\Dipole=0.523
 5868,3.5662707,-1.6787585\Quadrupole=27.0764493,-15.7493034,-11.327146
 ,5.5999144,-1.3033963,3.0211687\PG=C01 [X(C15H11N3O2S1)]\\@


 A MUSTACHE HAIR ACROSS A CHIP IS LIKE A REDWOOD
 TREE FALLING THROUGH A HOUSING PROJECT.
 - AN IBM MANAGER IN EAST FISHKILL, NEW YORK
   AS QUOTED IN "FROM SANDS TO CIRCUITS", IBM INNOVATION JANUARY 1985.
 Job cpu time:       0 days  0 hours 12 minutes 28.0 seconds.
 Elapsed time:       0 days  0 hours  0 minutes 50.0 seconds.
 File lengths (MBytes):  RWF=     32 Int=      0 D2E=      0 Chk=      5 Scr=      1
 Normal termination of Gaussian 16 at Thu Jan  8 03:08:44 2026.
